
                                 *****************
                                 * O   R   C   A *
                                 *****************

                                            #,                                       
                                            ###                                      
                                            ####                                     
                                            #####                                    
                                            ######                                   
                                           ########,                                 
                                     ,,################,,,,,                         
                               ,,#################################,,                 
                          ,,##########################################,,             
                       ,#########################################, ''#####,          
                    ,#############################################,,   '####,        
                  ,##################################################,,,,####,       
                ,###########''''           ''''###############################       
              ,#####''   ,,,,##########,,,,          '''####'''          '####       
            ,##' ,,,,###########################,,,                        '##       
           ' ,,###''''                  '''############,,,                           
         ,,##''                                '''############,,,,        ,,,,,,###''
      ,#''                                            '''#######################'''  
     '                                                          ''''####''''         
             ,#######,   #######,   ,#######,      ##                                
            ,#'     '#,  ##    ##  ,#'     '#,    #''#        ,####,   ,####,        
            ##       ##  ##   ,#'  ##            #'  '#       #'       #'  '#        
            ##       ##  #######   ##           ,######,      #####,   #    #        
            '#,     ,#'  ##    ##  '#,     ,#' ,#      #,     #,   #   #,  ,#        
             '#######'   ##     ##  '#######'  #'      '#     '####' # '####'        



                #########################################################
                #                        -***-                          #
                #          Department of theory and spectroscopy        #
                #                                                       #
                #                      Frank Neese                      #
                #                                                       #
                #     Directorship, Architecture, Infrastructure        #
                #                    SHARK, DRIVERS                     #
                #        Core code/Algorithms in most modules           #
                #                                                       #
                #        Max Planck Institute fuer Kohlenforschung      #
                #                Kaiser Wilhelm Platz 1                 #
                #                 D-45470 Muelheim/Ruhr                 #
                #                      Germany                          #
                #                                                       #
                #                  All rights reserved                  #
                #                        -***-                          #
                #########################################################


                         Program Version 6.0.1  -  RELEASE   -


 With contributions from (in alphabetic order):
[Max-Planck-Institut fuer Kohlenforschung]                               
  Daniel Aravena         : Magnetic Suceptibility                        
  Michael Atanasov       : Ab Initio Ligand Field Theory (pilot matlab implementation)
  Alexander A. Auer      : GIAO ZORA, VPT2 properties, NMR spectrum      
  Ute Becker             : All parallelization in ORCA, NUMFREQ, NUMCALC 
  Giovanni Bistoni       : ED, misc. LED, open-shell LED, HFLD           
  Martin Brehm           : Molecular dynamics                            
  Dmytro Bykov           : pre 5.0 version of the SCF Hessian            
  Marcos Casanova-Páez   : Triplet and SCS-CIS(D). UHF-(DLPNO)-IP/EA/STEOM-CCSD. UHF-CVS-IP/STEOM-CCSD   
  Vijay G. Chilkuri      : MRCI spin determinant printing, contributions to CSF-ICE 
  Pauline Colinet        : FMM embedding                                 
  Dipayan Datta          : RHF DLPNO-CCSD density                        
  Achintya Kumar Dutta   : EOM-CC, STEOM-CC                              
  Nicolas Foglia         : Exact transition moments, OPA infrastructure, MCD improvements    
  Dmitry Ganyushin       : Spin-Orbit,Spin-Spin,Magnetic field MRCI      
  Miquel Garcia-Rates    : C-PCM and meta-GGA Hessian, CCSD/C-PCM, Gaussian charge scheme 
  Tiago L. C. Gouveia    : GS-ROHF, GS-ROCIS                             
  Yang Guo               : DLPNO-NEVPT2, F12-NEVPT2, CIM, IAO-localization        
  Andreas Hansen         : Spin unrestricted coupled pair/coupled cluster methods 
  Ingolf Harden          : AUTO-CI MPn and infrastructure                
  Benjamin Helmich-Paris : MC-RPA, TRAH-(SCF,CASSCF), AVAS, COSX integrals, SCF dyn. polar. 
  Lee Huntington         : MR-EOM, pCC                                   
  Robert Izsak           : Overlap fitted RIJCOSX, COSX-SCS-MP3, EOM     
  Riya Kayal             : Wick's Theorem for AUTO-CI, AUTO-CI UHF-CCSDT 
  Emily Kempfer          : AUTO-CI, RHF CISDT and CCSDT                  
  Christian Kollmar      : KDIIS, OOCD, Brueckner-CCSD(T), CCSD density, CASPT2, CASPT2-K, improved NEVPT2 
  Axel Koslowski         : Symmetry handling                             
  Simone Kossmann        : meta-GGA functionals, TD-DFT gradient, OOMP2, (MP2 Hessian; deprecated post 5.0) 
  Lucas Lang             : DCDCAS                                        
  Marvin Lechner         : AUTO-CI (C++ implementation), FIC-MRCC        
  Spencer Leger          : CASSCF response                               
  Dagmar Lenk            : GEPOL surface, SMD, ORCA-2-JSON               
  Dimitrios Liakos       : Extrapolation schemes; Compound Job, initial MDCI parallelization 
  Dimitrios Manganas     : Further ROCIS development; embedding schemes. LFT, Crystal Embedding 
  Dimitrios Pantazis     : SARC Basis sets                               
  Anastasios Papadopoulos: AUTO-CI, single reference methods and gradients 
  Taras Petrenko         : pre 6.0 DFT Hessian and TD-DFT gradient, (ASA, deprecated), ECA, 1-Electron XAS/XES, NRVS 
  Peter Pinski           : DLPNO-MP2, DLPNO-MP2 Gradient                 
  Christoph Reimann      : Effective Core Potentials                     
  Marius Retegan         : Local ZFS, SOC                                
  Christoph Riplinger    : Optimizer, TS searches, QM/MM, DLPNO-CCSD(T), (RO)-DLPNO pert. Triples 
  Michael Roemelt        : Original ROCIS implementation                 
  Masaaki Saitow         : Open-shell DLPNO-CCSD energy and density      
  Barbara Sandhoefer     : DKH picture change effects                    
  Kantharuban Sivalingam : CASSCF convergence/infrastructure, NEVPT2 and variants, FIC-MRCI 
  Bernardo de Souza      : ESD, SOC TD-DFT                               
  Georgi L. Stoychev     : AutoAux, RI-MP2 NMR, DLPNO-MP2 response, X2C  
  Van Anh Tran           : RI-MP2 g-tensors                              
  Willem Van den Heuvel  : Paramagnetic NMR                              
  Zikuan Wang            : NOTCH, Electric field optimization            
  Frank Wennmohs         : Technical directorship and infrastructure     
  Hang Xu                : AUTO-CI-Response properties                   
                                                                         
[FACCTs GmbH]                                                            
  Markus Bursch, Miquel Garcia-Rates, Christoph Riplinger, Bernardo de Souza, Georgi L. Stoychev 
                                                                 
  APM, Basis sets (HGBS, AHGBS, def-TZVP (Ac-Lr), def2-XVPD (La-Lu)), CI-OPT, improved COSX, DLPNO-Multilevel,           
  DOCKER, DRACO, updates on ESD, GOAT, IRC, LR-CPCM, MBIS, meta-GGA TD-DFT gradient, ML-optimized integration grids, 
  MM, NACMEs, nearIR, NEB, NEB-TS, NL-DFT gradient (VV10), 2- and 3-layer-ONIOM, interface openCOSMO-RS, QMMM,   
  Crystal-QMMM, SF, symmetry and pop. for TD-DFT, r2SCAN hybrids, SOLVATOR                                   
                                                                         
[Other institutions]                                                     
  V. Asgeirsson          : NEB                                           
  Christoph Bannwarth    : sTDA-DFT, sTD-DFT, PBEh-3c, B97-3c, D3        
  Sebastian Ehlert       : rSCAN, r2SCAN, r2SCAN-3c, D4, dhf basis sets  
  Marvin Friede          : D4 for Fr, Ra, Ac-Lr                          
  Lars Goerigk           : TD-DFT with DH, B97 family of functionals     
  Stefan Grimme          : VdW corrections, initial TS optimization, DFT functionals, gCP, sTDA/sTD-DF 
  Waldemar Hujo          : DFT-NL                                        
  H. Jonsson             : NEB                                           
  Holger Kruse           : gCP                                           
  Marcel Mueller         : wB97X-3c, vDZP basis set                      
  Hagen Neugebauer       : wr2SCAN                                       
  Tobias Risthaus        : range-separated hybrid DFT                    
  Lukas Wittmann         : regularized MP2, r2SCAN double-hybrids, wr2SCAN        
                                                                         
We gratefully acknowledge several colleagues who have allowed us to      
interface, adapt or use parts of their codes:                            
  Ed Valeev, F. Pavosevic, A. Kumar             : LibInt (2-el integral package), F12 methods 
  Garnet Chan, S. Sharma, J. Yang, R. Olivares  : DMRG                   
  Ulf Ekstrom                                   : XCFun DFT Library      
  Mihaly Kallay                                 : mrcc  (arbitrary order and MRCC methods)
  Frank Weinhold                                : gennbo (NPA and NBO analysis)           
  Simon Mueller                                 : openCOSMO-RS                            
  Christopher J. Cramer and Donald G. Truhlar   : smd solvation model                     
  S Lehtola, MJT Oliveira, MAL Marques          : LibXC Library                           
  Liviu Ungur et al                             : ANISO software                          


 Your calculation uses the libint2 library for the computation of 2-el integrals
 For citations please refer to: http://libint.valeyev.net

 Your ORCA version has been built with support for libXC version: 6.2.2
 For citations please refer to: https://libxc.gitlab.io

 This ORCA versions uses:
   CBLAS   interface :  Fast vector & matrix operations
   LAPACKE interface :  Fast linear algebra routines
   SCALAPACK package :  Parallel linear algebra routines
   Shared memory     :  Shared parallel matrices
   BLAS/LAPACK       :  OpenBLAS 0.3.27  USE64BITINT DYNAMIC_ARCH NO_AFFINITY SkylakeX SINGLE_THREADED
        Core in use  :  SkylakeX
   Copyright (c) 2011-2014, The OpenBLAS Project


NOTE: MaxCore=5000 MB was set to SCF,MP2,MDCI,CIPSI,MRCI and CIS
      => If you want to overwrite this, your respective input block should be placed after the MaxCore statement
Your calculation utilizes the atom-pairwise dispersion correction
based on EEQ partial charges (D4)


Warning: RI is on but no J-basis has been assigned. Assigning Def2/J (nothing to worry about!)
================================================================================

----- Orbital basis set information -----
Your calculation utilizes the basis: def2-TZVP
   F. Weigend and R. Ahlrichs, Phys. Chem. Chem. Phys. 7, 3297 (2005).

----- AuxJ basis set information -----
Your calculation utilizes the auxiliary basis: def2/J
   F. Weigend, Phys. Chem. Chem. Phys. 8, 1057 (2006).

================================================================================
                                        WARNINGS
                       Please study these warnings very carefully!
================================================================================


WARNING: Geometry Optimization
  ===> : Switching off AutoStart
         For restart on a previous wavefunction, please use MOREAD

================================================================================
                                       INPUT FILE
================================================================================
NAME = BMI.inp
|  1> ! Opt B3LYP D4 def2-TZVP TightSCF TightOpt
|  2> 
|  3> %maxcore 5000
|  4> 
|  5> %pal
|  6> nprocs 25
|  7> end
|  8> 
|  9> * xyz 1 1
| 10> N         -0.26130        0.74560       -0.28840
| 11> N         -1.97150       -0.52670       -0.03670
| 12> C          1.00110        1.27760       -0.79210
| 13> C          2.21190        0.74040       -0.03220
| 14> C          2.33220       -0.78190       -0.11260
| 15> C         -0.84170       -0.36560       -0.73310
| 16> C         -1.01570        1.31090        0.70200
| 17> C         -2.10510        0.50240        0.86410
| 18> C          3.55450       -1.28290        0.64100
| 19> C         -2.90450       -1.61970       -0.21200
| 20> H          1.07670        1.02590       -1.85670
| 21> H          0.97110        2.37110       -0.72200
| 22> H          2.13940        1.04150        1.02000
| 23> H          3.11870        1.20370       -0.43860
| 24> H          1.44880       -1.26030        0.32240
| 25> H          2.39630       -1.09730       -1.16020
| 26> H         -0.47570       -1.01560       -1.51260
| 27> H         -0.67110        2.21730        1.16110
| 28> H         -2.96820        0.51290        1.50150
| 29> H          3.50110       -1.01170        1.70020
| 30> H          4.47340       -0.85930        0.22330
| 31> H          3.62160       -2.37310        0.57240
| 32> H         -2.53870       -2.30620       -0.98030
| 33> H         -3.00870       -2.16030        0.73270
| 34> H         -3.87440       -1.21920       -0.51920
| 35> *
| 36> 
| 37>                          ****END OF INPUT****
================================================================================

                       *****************************
                       * Geometry Optimization Run *
                       *****************************

Geometry optimization settings:
Update method            Update   .... BFGS
Choice of coordinates    CoordSys .... (2022) Redundant Internals
Initial Hessian          InHess   .... Almloef's Model
Max. no of cycles        MaxIter  .... 75

Convergence Tolerances:
Energy Change            TolE     ....  1.0000e-06 Eh
Max. Gradient            TolMAXG  ....  1.0000e-04 Eh/bohr
RMS Gradient             TolRMSG  ....  3.0000e-05 Eh/bohr
Max. Displacement        TolMAXD  ....  1.0000e-03 bohr
RMS Displacement         TolRMSD  ....  6.0000e-04 bohr
Strict Convergence                .... False

------------------------------------------------------------------------------
                        ORCA OPTIMIZATION COORDINATE SETUP
------------------------------------------------------------------------------

The optimization will be done in redundant internal coordinates (2022)
Making redundant internal coordinates   ...  (2022 redundants) done
Evaluating the initial hessian          ...  (Almloef) done
Evaluating the coordinates              ...  done
Calculating the B-matrix                .... done
Calculating the G-matrix                .... done
Diagonalizing the G-matrix              .... done
Small eigenvalue found = 6.337e-03
Small eigenvalue found = 2.293e-02
Small eigenvalue found = 2.720e-02
The first mode is                       ....   49
The number of degrees of freedom        ....   69

    -----------------------------------------------------------------
                    Redundant Internal Coordinates


    -----------------------------------------------------------------
         Definition                    Initial Value    Approx d2E/dq
    -----------------------------------------------------------------
      1. B(C   2,N   0)                  1.4596         0.433367   
      2. B(C   3,C   2)                  1.5271         0.377560   
      3. B(C   4,C   3)                  1.5292         0.374728   
      4. B(C   5,N   1)                  1.3369         0.680064   
      5. B(C   5,N   0)                  1.3302         0.697123   
      6. B(C   6,N   0)                  1.3673         0.608209   
      7. B(C   7,N   1)                  1.3742         0.593110   
      8. B(C   7,C   6)                  1.3663         0.681664   
      9. B(C   8,C   4)                  1.5208         0.386370   
     10. B(C   9,N   1)                  1.4477         0.452690   
     11. B(H  10,C   2)                  1.0966         0.351527   
     12. B(H  11,C   2)                  1.0962         0.352049   
     13. B(H  12,C   3)                  1.0968         0.351174   
     14. B(H  13,C   3)                  1.0964         0.351732   
     15. B(H  14,C   4)                  1.0948         0.353865   
     16. B(H  15,C   4)                  1.0959         0.352347   
     17. B(H  16,C   5)                  1.0789         0.375055   
     18. B(H  17,C   6)                  1.0729         0.383467   
     19. B(H  18,C   7)                  1.0730         0.383305   
     20. B(H  19,C   8)                  1.0947         0.353973   
     21. B(H  20,C   8)                  1.0947         0.353984   
     22. B(H  21,C   8)                  1.0944         0.354306   
     23. B(H  22,C   9)                  1.0933         0.355718   
     24. B(H  23,C   9)                  1.0934         0.355606   
     25. B(H  24,C   9)                  1.0934         0.355657   
     26. A(C   5,N   0,C   6)          110.2911         0.436026   
     27. A(C   2,N   0,C   5)          124.5062         0.410400   
     28. A(C   2,N   0,C   6)          125.2027         0.400627   
     29. A(C   7,N   1,C   9)          125.5998         0.401933   
     30. A(C   5,N   1,C   9)          124.9263         0.411774   
     31. A(C   5,N   1,C   7)          109.4740         0.432128   
     32. A(C   3,C   2,H  10)          110.3464         0.323602   
     33. A(N   0,C   2,H  10)          108.1199         0.329045   
     34. A(N   0,C   2,C   3)          112.6943         0.371069   
     35. A(H  10,C   2,H  11)          107.0349         0.288717   
     36. A(C   3,C   2,H  11)          109.9256         0.323681   
     37. A(N   0,C   2,H  11)          108.5338         0.329126   
     38. A(C   2,C   3,C   4)          112.7313         0.364203   
     39. A(H  12,C   3,H  13)          107.1127         0.288631   
     40. A(C   4,C   3,H  13)          109.6403         0.323233   
     41. A(C   2,C   3,H  13)          108.8241         0.323633   
     42. A(C   4,C   3,H  12)          109.2035         0.323149   
     43. A(C   2,C   3,H  12)          109.1705         0.323548   
     44. A(H  14,C   4,H  15)          107.5334         0.289055   
     45. A(C   8,C   4,H  15)          109.3813         0.324954   
     46. A(C   3,C   4,H  15)          109.9599         0.323326   
     47. A(C   8,C   4,H  14)          107.9201         0.325184   
     48. A(C   3,C   4,H  14)          110.5276         0.323554   
     49. A(C   3,C   4,C   8)          111.4151         0.365644   
     50. A(N   1,C   5,H  16)          126.1863         0.358746   
     51. A(N   0,C   5,H  16)          126.6406         0.360263   
     52. A(N   0,C   5,N   1)          107.1726         0.444909   
     53. A(C   7,C   6,H  17)          134.8501         0.362498   
     54. A(N   0,C   6,H  17)          118.8174         0.353337   
     55. A(N   0,C   6,C   7)          106.3324         0.437134   
     56. A(N   1,C   7,C   6)          106.7300         0.435159   
     57. A(C   6,C   7,H  18)          134.9148         0.362472   
     58. A(N   1,C   7,H  18)          118.3552         0.351812   
     59. A(H  19,C   8,H  21)          108.0853         0.289320   
     60. A(C   4,C   8,H  21)          110.2656         0.325251   
     61. A(H  19,C   8,H  20)          108.3182         0.289279   
     62. A(C   4,C   8,H  20)          110.9837         0.325202   
     63. A(H  20,C   8,H  21)          108.0648         0.289322   
     64. A(C   4,C   8,H  19)          111.0168         0.325200   
     65. A(H  23,C   9,H  24)          109.8352         0.289702   
     66. A(H  22,C   9,H  24)          109.2292         0.289716   
     67. A(N   1,C   9,H  24)          109.2176         0.332069   
     68. A(H  22,C   9,H  23)          109.1826         0.289710   
     69. A(N   1,C   9,H  23)          109.2731         0.332061   
     70. A(N   1,C   9,H  22)          110.0916         0.332078   
     71. D(H  11,C   2,N   0,C   5)    148.0163         0.016012   
     72. D(H  10,C   2,N   0,C   6)   -147.7620         0.016012   
     73. D(H  10,C   2,N   0,C   5)     32.2433         0.016012   
     74. D(C   3,C   2,N   0,C   5)    -89.9913         0.016012   
     75. D(C   3,C   2,N   0,C   6)     90.0035         0.016012   
     76. D(H  12,C   3,C   2,H  11)     59.6326         0.011369   
     77. D(H  12,C   3,C   2,N   0)    -61.5705         0.011369   
     78. D(C   4,C   3,C   2,H  10)    -60.9944         0.011369   
     79. D(H  12,C   3,C   2,H  10)    177.4575         0.011369   
     80. D(C   4,C   3,C   2,N   0)     59.9776         0.011369   
     81. D(C   4,C   3,C   2,H  11)   -178.8193         0.011369   
     82. D(C   8,C   4,C   3,H  13)     58.0051         0.011209   
     83. D(C   8,C   4,C   3,H  12)    -59.0688         0.011209   
     84. D(H  14,C   4,C   3,C   2)    -60.6134         0.011209   
     85. D(C   8,C   4,C   3,C   2)    179.4018         0.011209   
     86. D(H  14,C   4,C   3,H  13)    177.9898         0.011209   
     87. D(H  14,C   4,C   3,H  12)     60.9160         0.011209   
     88. D(H  16,C   5,N   1,C   9)      0.2251         0.038056   
     89. D(H  16,C   5,N   1,C   7)   -179.7483         0.038056   
     90. D(N   0,C   5,N   1,C   9)    179.9548         0.038056   
     91. D(N   0,C   5,N   1,C   7)     -0.0186         0.038056   
     92. D(H  16,C   5,N   0,C   6)    179.7396         0.040183   
     93. D(H  16,C   5,N   0,C   2)     -0.2650         0.040183   
     94. D(N   1,C   5,N   0,C   6)      0.0115         0.040183   
     95. D(N   1,C   5,N   0,C   2)   -179.9931         0.040183   
     96. D(H  17,C   6,N   0,C   5)    179.8928         0.029867   
     97. D(H  17,C   6,N   0,C   2)     -0.1026         0.029867   
     98. D(C   7,C   6,N   0,C   5)      0.0000         0.029867   
     99. D(C   7,C   6,N   0,C   2)   -179.9954         0.029867   
    100. D(C   6,C   7,N   1,C   9)   -179.9545         0.028300   
    101. D(C   6,C   7,N   1,C   5)      0.0187         0.028300   
    102. D(H  18,C   7,C   6,H  17)      0.0881         0.032585   
    103. D(H  18,C   7,C   6,N   0)    179.9557         0.032585   
    104. D(N   1,C   7,C   6,H  17)   -179.8787         0.032585   
    105. D(N   1,C   7,C   6,N   0)     -0.0112         0.032585   
    106. D(H  18,C   7,N   1,C   9)      0.0722         0.028300   
    107. D(H  18,C   7,N   1,C   5)   -179.9547         0.028300   
    108. D(H  20,C   8,C   4,H  14)    178.1274         0.011878   
    109. D(H  20,C   8,C   4,C   3)    -60.3593         0.011878   
    110. D(H  19,C   8,C   4,H  15)   -178.0499         0.011878   
    111. D(H  19,C   8,C   4,H  14)    -61.3444         0.011878   
    112. D(H  20,C   8,C   4,H  15)     61.4220         0.011878   
    113. D(H  19,C   8,C   4,C   3)     60.1689         0.011878   
    114. D(H  24,C   9,N   1,C   5)   -118.6076         0.017485   
    115. D(H  23,C   9,N   1,C   7)    -58.8081         0.017485   
    116. D(H  23,C   9,N   1,C   5)    121.2228         0.017485   
    117. D(H  22,C   9,N   1,C   7)   -178.7119         0.017485   
    118. D(H  22,C   9,N   1,C   5)      1.3189         0.017485   
    -----------------------------------------------------------------

Number of atoms                         .... 25
Number of degrees of freedom            .... 118


         *************************************************************
         *                GEOMETRY OPTIMIZATION CYCLE   1            *
         *************************************************************
---------------------------------
CARTESIAN COORDINATES (ANGSTROEM)
---------------------------------
  N     -0.261300    0.745600   -0.288400
  N     -1.971500   -0.526700   -0.036700
  C      1.001100    1.277600   -0.792100
  C      2.211900    0.740400   -0.032200
  C      2.332200   -0.781900   -0.112600
  C     -0.841700   -0.365600   -0.733100
  C     -1.015700    1.310900    0.702000
  C     -2.105100    0.502400    0.864100
  C      3.554500   -1.282900    0.641000
  C     -2.904500   -1.619700   -0.212000
  H      1.076700    1.025900   -1.856700
  H      0.971100    2.371100   -0.722000
  H      2.139400    1.041500    1.020000
  H      3.118700    1.203700   -0.438600
  H      1.448800   -1.260300    0.322400
  H      2.396300   -1.097300   -1.160200
  H     -0.475700   -1.015600   -1.512600
  H     -0.671100    2.217300    1.161100
  H     -2.968200    0.512900    1.501500
  H      3.501100   -1.011700    1.700200
  H      4.473400   -0.859300    0.223300
  H      3.621600   -2.373100    0.572400
  H     -2.538700   -2.306200   -0.980300
  H     -3.008700   -2.160300    0.732700
  H     -3.874400   -1.219200   -0.519200

----------------------------
CARTESIAN COORDINATES (A.U.)
----------------------------
  NO LB      ZA    FRAG     MASS         X           Y           Z
   0 N     7.0000    0    14.007   -0.493785    1.408980   -0.544997
   1 N     7.0000    0    14.007   -3.725595   -0.995319   -0.069353
   2 C     6.0000    0    12.011    1.891805    2.414314   -1.496852
   3 C     6.0000    0    12.011    4.179885    1.399153   -0.060849
   4 C     6.0000    0    12.011    4.407219   -1.477577   -0.212783
   5 C     6.0000    0    12.011   -1.590582   -0.690884   -1.385358
   6 C     6.0000    0    12.011   -1.919395    2.477242    1.326588
   7 C     6.0000    0    12.011   -3.978062    0.949398    1.632912
   8 C     6.0000    0    12.011    6.717032   -2.424330    1.211314
   9 C     6.0000    0    12.011   -5.488710   -3.060789   -0.400622
  10 H     1.0000    0     1.008    2.034668    1.938670   -3.508655
  11 H     1.0000    0     1.008    1.835113    4.480730   -1.364382
  12 H     1.0000    0     1.008    4.042880    1.968150    1.927521
  13 H     1.0000    0     1.008    5.893489    2.274663   -0.828834
  14 H     1.0000    0     1.008    2.737835   -2.381622    0.609248
  15 H     1.0000    0     1.008    4.528351   -2.073596   -2.192460
  16 H     1.0000    0     1.008   -0.898943   -1.919206   -2.858400
  17 H     1.0000    0     1.008   -1.268195    4.190090    2.194161
  18 H     1.0000    0     1.008   -5.609085    0.969241    2.837424
  19 H     1.0000    0     1.008    6.616120   -1.911836    3.212912
  20 H     1.0000    0     1.008    8.453501   -1.623842    0.421976
  21 H     1.0000    0     1.008    6.843832   -4.484509    1.081679
  22 H     1.0000    0     1.008   -4.797448   -4.358086   -1.852499
  23 H     1.0000    0     1.008   -5.685619   -4.082375    1.384602
  24 H     1.0000    0     1.008   -7.321555   -2.303954   -0.981146

--------------------------------
INTERNAL COORDINATES (ANGSTROEM)
--------------------------------
 N      0   0   0     0.000000000000     0.00000000     0.00000000
 N      1   0   0     2.146365351006     0.00000000     0.00000000
 C      1   2   0     1.459586054332   161.02676397     0.00000000
 C      3   1   2     1.527111158364   112.69433151   269.99598659
 C      4   3   1     1.529161057574   112.73126621    59.97757420
 C      1   2   3     1.330183329470    36.52058342     0.00000000
 C      1   2   6     1.367324251961    73.77050714   180.01124826
 C      7   1   2     1.366287312391   106.33235471     0.00000000
 C      5   4   3     1.520832420091   111.41505558   179.40178554
 C      2   1   3     1.447711328270   161.23308450   359.90229381
 H      3   1   2     1.096558894907   108.11987067    32.23057382
 H      3   1   2     1.096155217111   108.53378145   148.00358041
 H      4   3   1     1.096832849617   109.17051598   298.42947903
 H      4   3   1     1.096400515323   108.82413687   181.83661456
 H      5   4   3     1.094754365143   110.52757616   299.38657868
 H      5   4   3     1.095925056744   109.95993351    57.95659017
 H      6   1   2     1.078923653462   126.64056049   179.72806436
 H      7   1   2     1.072885329381   118.81739659   179.89996958
 H      8   7   1     1.073000754893   134.91475693   179.95569070
 H      9   5   4     1.094671475832   111.01680678    60.16889873
 H      9   5   4     1.094663171939   110.98372370   299.64072247
 H      9   5   4     1.094415099494   110.26558514   179.92828125
 H     10   2   1     1.093332877032   110.09156178     1.40218810
 H     10   2   1     1.093418533774   109.27312901   121.30602917
 H     10   2   1     1.093379211436   109.21763895   241.47568705

---------------------------
INTERNAL COORDINATES (A.U.)
---------------------------
 N      0   0   0     0.000000000000     0.00000000     0.00000000
 N      1   0   0     4.056042696739     0.00000000     0.00000000
 C      1   2   0     2.758217911578   161.02676397     0.00000000
 C      3   1   2     2.885821865363   112.69433151   269.99598659
 C      4   3   1     2.889695613472   112.73126621    59.97757420
 C      1   2   3     2.513682200606    36.52058342     0.00000000
 C      1   2   6     2.583868372475    73.77050714   180.01124826
 C      7   1   2     2.581908840670   106.33235471     0.00000000
 C      5   4   3     2.873956769561   111.41505558   179.40178554
 C      2   1   3     2.735777931405   161.23308450   359.90229381
 H      3   1   2     2.072196001090   108.11987067    32.23057382
 H      3   1   2     2.071433160609   108.53378145   148.00358041
 H      4   3   1     2.072713700465   109.17051598   298.42947903
 H      4   3   1     2.071896707050   108.82413687   181.83661456
 H      5   4   3     2.068785934035   110.52757616   299.38657868
 H      5   4   3     2.070998220549   109.95993351    57.95659017
 H      6   1   2     2.038870224453   126.64056049   179.72806436
 H      7   1   2     2.027459445631   118.81739659   179.89996958
 H      8   7   1     2.027677568238   134.91475693   179.95569070
 H      9   5   4     2.068629295938   111.01680678    60.16889873
 H      9   5   4     2.068613603855   110.98372370   299.64072247
 H      9   5   4     2.068144814871   110.26558514   179.92828125
 H     10   2   1     2.066099710803   110.09156178     1.40218810
 H     10   2   1     2.066261578586   109.27312901   121.30602917
 H     10   2   1     2.066187270136   109.21763895   241.47568705

---------------------
BASIS SET INFORMATION
---------------------
There are 3 groups of distinct atoms

 Group   1 Type N   : 11s6p2d1f contracted to 5s3p2d1f pattern {62111/411/11/1}
 Group   2 Type C   : 11s6p2d1f contracted to 5s3p2d1f pattern {62111/411/11/1}
 Group   3 Type H   : 5s1p contracted to 3s1p pattern {311/1}

Atom   0N    basis set group =>   1
Atom   1N    basis set group =>   1
Atom   2C    basis set group =>   2
Atom   3C    basis set group =>   2
Atom   4C    basis set group =>   2
Atom   5C    basis set group =>   2
Atom   6C    basis set group =>   2
Atom   7C    basis set group =>   2
Atom   8C    basis set group =>   2
Atom   9C    basis set group =>   2
Atom  10H    basis set group =>   3
Atom  11H    basis set group =>   3
Atom  12H    basis set group =>   3
Atom  13H    basis set group =>   3
Atom  14H    basis set group =>   3
Atom  15H    basis set group =>   3
Atom  16H    basis set group =>   3
Atom  17H    basis set group =>   3
Atom  18H    basis set group =>   3
Atom  19H    basis set group =>   3
Atom  20H    basis set group =>   3
Atom  21H    basis set group =>   3
Atom  22H    basis set group =>   3
Atom  23H    basis set group =>   3
Atom  24H    basis set group =>   3
---------------------------------
AUXILIARY/J BASIS SET INFORMATION
---------------------------------
There are 3 groups of distinct atoms

 Group   1 Type N   : 12s5p4d2f1g contracted to 6s4p3d1f1g pattern {711111/2111/211/2/1}
 Group   2 Type C   : 12s5p4d2f1g contracted to 6s4p3d1f1g pattern {711111/2111/211/2/1}
 Group   3 Type H   : 5s2p1d contracted to 3s1p1d pattern {311/2/1}

Atom   0N    basis set group =>   1
Atom   1N    basis set group =>   1
Atom   2C    basis set group =>   2
Atom   3C    basis set group =>   2
Atom   4C    basis set group =>   2
Atom   5C    basis set group =>   2
Atom   6C    basis set group =>   2
Atom   7C    basis set group =>   2
Atom   8C    basis set group =>   2
Atom   9C    basis set group =>   2
Atom  10H    basis set group =>   3
Atom  11H    basis set group =>   3
Atom  12H    basis set group =>   3
Atom  13H    basis set group =>   3
Atom  14H    basis set group =>   3
Atom  15H    basis set group =>   3
Atom  16H    basis set group =>   3
Atom  17H    basis set group =>   3
Atom  18H    basis set group =>   3
Atom  19H    basis set group =>   3
Atom  20H    basis set group =>   3
Atom  21H    basis set group =>   3
Atom  22H    basis set group =>   3
Atom  23H    basis set group =>   3
Atom  24H    basis set group =>   3
--------------------------------------------------------------------------
WARNING: There was an error initializing an OpenFabrics device.

  Local host:   ga00
  Local device: mlx5_0
--------------------------------------------------------------------------


           ************************************************************
           *        Program running with 25 parallel MPI-processes    *
           *              working on a common directory               *
           ************************************************************
------------------------------------------------------------------------------
                             ORCA STARTUP CALCULATIONS
                           -- RI-GTO INTEGRALS CHOSEN --
------------------------------------------------------------------------------
------------------------------------------------------------------------------
                   ___                                                        
                  /   \      - P O W E R E D   B Y -                         
                 /     \                                                     
                 |  |  |   _    _      __       _____    __    __             
                 |  |  |  | |  | |    /  \     |  _  \  |  |  /  |          
                  \  \/   | |  | |   /    \    | | | |  |  | /  /          
                 / \  \   | |__| |  /  /\  \   | |_| |  |  |/  /          
                |  |  |   |  __  | /  /__\  \  |    /   |      \           
                |  |  |   | |  | | |   __   |  |    \   |  |\   \          
                \     /   | |  | | |  |  |  |  | |\  \  |  | \   \       
                 \___/    |_|  |_| |__|  |__|  |_| \__\ |__|  \__/        
                                                                              
                      - O R C A' S   B I G   F R I E N D -                    
                                      &                                       
                       - I N T E G R A L  F E E D E R -                       
                                                                              
 v1 FN, 2020, v2 2021, v3 2022-2024                                           
------------------------------------------------------------------------------


----------------------
SHARK INTEGRAL PACKAGE
----------------------

Number of atoms                             ...     25
Number of basis functions                   ...    400
Number of shells                            ...    170
Maximum angular momentum                    ...      3
Integral batch strategy                     ... SHARK/LIBINT Hybrid
RI-J (if used) integral strategy            ... SPLIT-RIJ (Revised 2003 algorithm where possible)
Printlevel                                  ...      1
Contraction scheme used                     ... SEGMENTED contraction
Prescreening option                         ... SCHWARTZ
   Thresh                                   ... 2.500e-11
   Tcut                                     ... 2.500e-12
   Tpresel                                  ... 2.500e-12 
Coulomb Range Separation                    ... NOT USED
Exchange Range Separation                   ... NOT USED
Multipole approximations                    ... NOT USED
Finite Nucleus Model                        ... NOT USED
CABS basis                                  ... NOT available
Auxiliary Coulomb fitting basis             ... AVAILABLE
   # of basis functions in Aux-J            ...    655
   # of shells in Aux-J                     ...    225
   Maximum angular momentum in Aux-J        ...      4
Auxiliary J/K fitting basis                 ... NOT available
Auxiliary Correlation fitting basis         ... NOT available
Auxiliary 'external' fitting basis          ... NOT available

Checking pre-screening integrals            ... done (  0.0 sec) Dimension = 170
Check shell pair data                       ... done (  0.0 sec)
Shell pair information
Shell pair cut-off parameter TPreSel        ...   2.5e-12
Total number of shell pairs                 ...     14535
Shell pairs after pre-screening             ...     12436
Total number of primitive shell pairs       ...     42460
Primitive shell pairs kept                  ...     26554
          la=0 lb=0:   3813 shell pairs
          la=1 lb=0:   3665 shell pairs
          la=1 lb=1:    907 shell pairs
          la=2 lb=0:   1642 shell pairs
          la=2 lb=1:    800 shell pairs
          la=2 lb=2:    194 shell pairs
          la=3 lb=0:    797 shell pairs
          la=3 lb=1:    392 shell pairs
          la=3 lb=2:    177 shell pairs
          la=3 lb=3:     49 shell pairs

Calculating one electron integrals          ... done (  0.0 sec)
Calculating RI/J V-Matrix + Cholesky decomp.... done (  0.0 sec)
Calculating Nuclear repulsion               ... done (  0.0 sec) ENN=    547.844068060051 Eh

Diagonalization of the overlap matrix:
Smallest eigenvalue                        ... 7.485e-05
Time for diagonalization                   ...    0.014 sec
Threshold for overlap eigenvalues          ... 1.000e-07
Number of eigenvalues below threshold      ... 0
Time for construction of square roots      ...    0.008 sec
Total time needed                          ...    0.024 sec

-------------------
DFT GRID GENERATION
-------------------

General Integration Accuracy     IntAcc      ... 4.388
Radial Grid Type                 RadialGrid  ... OptM3 with GC (2021)
Angular Grid (max. ang.)         AngularGrid ... 4 (Lebedev-302)
Angular grid pruning method      GridPruning ... 4 (adaptive)
Weight generation scheme         WeightScheme... mBecke (2022)
Basis function cutoff            BFCut       ... 1.0000e-11
Integration weight cutoff        WCut        ... 1.0000e-14
Partially contracted basis set               ... off
Rotationally invariant grid construction     ... off
Angular grids for H and He will be reduced by one unit

Total number of grid points                  ...   107916
Total number of batches                      ...     1700
Average number of points per batch           ...       63
Average number of grid points per atom       ...     4317

--------------------
COSX GRID GENERATION
--------------------

GRIDX 1
-------
General Integration Accuracy     IntAcc      ... 3.816
Radial Grid Type                 RadialGrid  ... OptM3 with GC (2021)
Angular Grid (max. ang.)         AngularGrid ... 1 (Lebedev-50)
Angular grid pruning method      GridPruning ... 4 (adaptive)
Weight generation scheme         WeightScheme... mBecke (2022)
Basis function cutoff            BFCut       ... 1.0000e-11
Integration weight cutoff        WCut        ... 1.0000e-14
Partially contracted basis set               ... on
Rotationally invariant grid construction     ... off
Angular grids for H and He will be reduced by one unit

Total number of grid points                  ...    13817
Total number of batches                      ...      125
Average number of points per batch           ...      110
Average number of grid points per atom       ...      553
UseSFitting                                  ... on

GRIDX 2
-------
General Integration Accuracy     IntAcc      ... 4.020
Radial Grid Type                 RadialGrid  ... OptM3 with GC (2021)
Angular Grid (max. ang.)         AngularGrid ... 2 (Lebedev-110)
Angular grid pruning method      GridPruning ... 4 (adaptive)
Weight generation scheme         WeightScheme... mBecke (2022)
Basis function cutoff            BFCut       ... 1.0000e-11
Integration weight cutoff        WCut        ... 1.0000e-14
Partially contracted basis set               ... on
Rotationally invariant grid construction     ... off
Angular grids for H and He will be reduced by one unit

Total number of grid points                  ...    29011
Total number of batches                      ...      242
Average number of points per batch           ...      119
Average number of grid points per atom       ...     1160
UseSFitting                                  ... on

GRIDX 3
-------
General Integration Accuracy     IntAcc      ... 4.338
Radial Grid Type                 RadialGrid  ... OptM3 with GC (2021)
Angular Grid (max. ang.)         AngularGrid ... 3 (Lebedev-194)
Angular grid pruning method      GridPruning ... 4 (adaptive)
Weight generation scheme         WeightScheme... mBecke (2022)
Basis function cutoff            BFCut       ... 1.0000e-11
Integration weight cutoff        WCut        ... 1.0000e-14
Partially contracted basis set               ... on
Rotationally invariant grid construction     ... off
Angular grids for H and He will be reduced by one unit

Total number of grid points                  ...    63327
Total number of batches                      ...      506
Average number of points per batch           ...      125
Average number of grid points per atom       ...     2533
UseSFitting                                  ... on
Initializing property integral containers    ... done (  0.0 sec)

SHARK setup successfully completed in   1.0 seconds

Maximum memory used throughout the entire STARTUP-calculation: 37.2 MB
[ga00:417040] 24 more processes have sent help message help-mpi-btl-openib.txt / error in device init
[ga00:417040] Set MCA parameter "orte_base_help_aggregate" to 0 to see all help / error messages
--------------------------------------------------------------------------
WARNING: There was an error initializing an OpenFabrics device.

  Local host:   ga00
  Local device: mlx5_0
--------------------------------------------------------------------------


           ************************************************************
           *        Program running with 25 parallel MPI-processes    *
           *              working on a common directory               *
           ************************************************************
-------------------------------------------------------------------------------
                                 ORCA GUESS
                   Start orbitals & Density for SCF / CASSCF
-------------------------------------------------------------------------------

------------
SCF SETTINGS
------------
Hamiltonian:
 Density Functional     Method          .... DFT(GTOs)
 Exchange Functional    Exchange        .... B88
   X-Alpha parameter    XAlpha          ....  0.666667
   Becke's b parameter  XBeta           ....  0.004200
 Correlation Functional Correlation     .... LYP
 LDA part of GGA corr.  LDAOpt          .... VWN-5
 Gradients option       PostSCFGGA      .... off
 Hybrid DFT is turned on
   Fraction HF Exchange ScalHFX         ....  0.200000
   Scaling of DF-GGA-X  ScalDFX         ....  0.720000
   Scaling of DF-GGA-C  ScalDFC         ....  0.810000
   Scaling of DF-LDA-C  ScalLDAC        ....  1.000000
   Perturbative correction              ....  0.000000
   NL short-range parameter             ....  4.800000
 RI-approximation to the Coulomb term is turned on
   Number of AuxJ basis functions       .... 655
   RIJ-COSX (HFX calculated with COS-X)).... on


General Settings:
 Integral files         IntName         .... BMI
 Hartree-Fock type      HFTyp           .... RHF
 Total Charge           Charge          ....    1
 Multiplicity           Mult            ....    1
 Number of Electrons    NEL             ....   76
 Basis Dimension        Dim             ....  400
 Nuclear Repulsion      ENuc            ....    547.8440680601 Eh

Convergence Acceleration:
 AO-DIIS                CNVDIIS         .... on
   Start iteration      DIISMaxIt       ....    12
   Startup error        DIISStart       ....  0.200000
   # of expansion vecs  DIISMaxEq       ....     5
   Bias factor          DIISBfac        ....   1.050
   Max. coefficient     DIISMaxC        ....  10.000
 MO-DIIS                CNVKDIIS        .... off
 Trust-Rad. Augm. Hess. CNVTRAH         .... auto
   Auto Start mean grad. ratio tolernc. ....  1.125000
   Auto Start start iteration           ....    50
   Auto Start num. interpolation iter.  ....    10
   Max. Number of Micro iterations      ....    24
   Max. Number of Macro iterations      .... Maxiter - #DIIS iter
   Number of Davidson start vectors     ....     2
   Converg. threshold    (grad. norm)   ....   1.000e-05
   Grad. Scal. Fac. for Micro threshold ....   0.100
   Minimum threshold for Micro iter.    ....   1.000e-02
   NR start threshold (gradient norm)   ....   1.000e-04
   Initial trust radius                 ....   0.400
   Minimum AH scaling param. (alpha)    ....   1.000
   Maximum AH scaling param. (alpha)    .... 1000.000
   Quad. conv. algorithm                .... NR
   White noise on init. David. guess    .... on
   Maximum white noise                  ....   0.010
   Pseudo random numbers                .... off
   Inactive MOs                         .... canonical
   Orbital update algorithm             .... Taylor
   Preconditioner                       .... Diag
   Full preconditioner red. dimension   ....   250
 SOSCF                  CNVSOSCF        .... on
   Start iteration      SOSCFMaxIt      ....   150
   Startup grad/error   SOSCFStart      ....  0.003300
   Hessian update       SOSCFHessUp     .... L-BFGS
 Level Shifting         CNVShift        .... on
   Level shift para.    LevelShift      ....    0.2500
   Turn off err/grad.   ShiftErr        ....    0.0010
 Zerner damping         CNVZerner       .... off
 Static damping         CNVDamp         .... on
   Fraction old density DampFac         ....    0.7000
   Max. Damping (<1)    DampMax         ....    0.9800
   Min. Damping (>=0)   DampMin         ....    0.0000
   Turn off err/grad.   DampErr         ....    0.1000

SCF Procedure:
 Maximum # iterations   MaxIter         ....   125
 SCF integral mode      SCFMode         .... Direct
   Integral package                     .... SHARK and LIBINT hybrid scheme
 Reset frequency        DirectResetFreq ....    20
 Integral Threshold     Thresh          ....  2.500e-11 Eh
 Primitive CutOff       TCut            ....  2.500e-12 Eh

Convergence Tolerance:
 Convergence Check Mode ConvCheckMode   .... Total+1el-Energy
 Convergence forced     ConvForced      .... 0
 Energy Change          TolE            ....  1.000e-08 Eh
 1-El. energy change                    ....  1.000e-05 Eh
 Orbital Gradient       TolG            ....  1.000e-05
 Orbital Rotation angle TolX            ....  1.000e-05
 DIIS Error             TolErr          ....  5.000e-07

------------------------------
INITIAL GUESS: MODEL POTENTIAL
------------------------------
Loading Hartree-Fock densities                     ... done
Calculating cut-offs                               ... done
Initializing the effective Hamiltonian             ... done
Setting up the integral package (SHARK)            ... done
Starting the Coulomb interaction                   ... done (   0.0 sec)
Making the grid                                    ... done (   0.1 sec)
Mapping shells                                     ... done
Starting the XC term evaluation                    ... done (   0.0 sec)
  promolecular density results
     # of electrons  =     76.996414983
     EX              =    -58.844743174
     EC              =     -2.538214681
     EX+EC           =    -61.382957855
Transforming the Hamiltonian                       ... done (   0.0 sec)
Diagonalizing the Hamiltonian                      ... done (   0.0 sec)
Back transforming the eigenvectors                 ... done (   0.0 sec)
Now organizing SCF variables                       ... done
                      ------------------
                      INITIAL GUESS DONE (   0.2 sec)
                      ------------------
             **** ENERGY FILE WAS UPDATED (BMI.en.tmp) ****
Finished Guess after   0.8 sec
Maximum memory used throughout the entire GUESS-calculation: 26.4 MB
[ga00:417183] 24 more processes have sent help message help-mpi-btl-openib.txt / error in device init
[ga00:417183] Set MCA parameter "orte_base_help_aggregate" to 0 to see all help / error messages
--------------------------------------------------------------------------
WARNING: There was an error initializing an OpenFabrics device.

  Local host:   ga00
  Local device: mlx5_0
--------------------------------------------------------------------------


           ************************************************************
           *        Program running with 25 parallel MPI-processes    *
           *              working on a common directory               *
           ************************************************************

-------------------------------------------------------------------------------------------
                                      ORCA LEAN-SCF
                              memory conserving SCF solver
-------------------------------------------------------------------------------------------

----------------------------------------D-I-I-S--------------------------------------------
Iteration    Energy (Eh)           Delta-E    RMSDP     MaxDP     DIISErr   Damp  Time(sec)
-------------------------------------------------------------------------------------------
               ***  Starting incremental Fock matrix formation  ***
    1    -422.8165429033864484     0.00e+00  9.81e-04  3.83e-02  1.87e-01  0.700   1.0
    2    -422.9226592403148288    -1.06e-01  7.25e-04  2.32e-02  9.46e-02  0.700   0.6
                               ***Turning on AO-DIIS***
    3    -422.9675410369658266    -4.49e-02  3.25e-04  8.92e-03  3.28e-02  0.700   0.6
    4    -422.9937096976705106    -2.62e-02  6.01e-04  1.79e-02  1.55e-02  0.000   0.6
    5    -423.0503465907885357    -5.66e-02  9.47e-05  3.06e-03  4.35e-03  0.000   0.6
                              *** Initializing SOSCF ***
---------------------------------------S-O-S-C-F--------------------------------------
Iteration    Energy (Eh)           Delta-E    RMSDP     MaxDP     MaxGrad    Time(sec)
--------------------------------------------------------------------------------------
    6    -423.0505949906971637    -2.48e-04  4.07e-05  1.68e-03  1.24e-03     0.6
               *** Restarting incremental Fock matrix formation ***
[ga00:417299] 24 more processes have sent help message help-mpi-btl-openib.txt / error in device init
[ga00:417299] Set MCA parameter "orte_base_help_aggregate" to 0 to see all help / error messages
    7    -423.0506095894724012    -1.46e-05  2.77e-05  1.24e-03  1.12e-04     0.9
    8    -423.0506098585510699    -2.69e-07  7.39e-06  2.58e-04  2.14e-04     0.7
    9    -423.0506117381034983    -1.88e-06  4.65e-06  1.35e-04  6.08e-05     0.6
   10    -423.0506117310723084     7.03e-09  1.36e-06  4.26e-05  4.52e-05     0.6
                 **** Energy Check signals convergence ****

               *****************************************************
               *                     SUCCESS                       *
               *           SCF CONVERGED AFTER  10 CYCLES          *
               *****************************************************

Recomputing exchange energy using gridx3       ... done (    1.246 sec)
Old exchange energy                            :    -11.976081745 Eh
New exchange energy                            :    -11.976071424 Eh
Exchange energy change after final integration :      0.000010321 Eh
Total energy after final integration           :   -423.050601410 Eh
             **** ENERGY FILE WAS UPDATED (BMI.en.tmp) ****

----------------
TOTAL SCF ENERGY
----------------

Total Energy       :       -423.05060141015565 Eh          -11511.79211 eV

Components:
Nuclear Repulsion  :        547.84406806005120 Eh           14907.59498 eV
Electronic Energy  :       -970.89467979112351 Eh          -26419.38737 eV
One Electron Energy:      -1643.13300998694558 Eh          -44711.92231 eV
Two Electron Energy:        672.23833019582207 Eh           18292.53494 eV

Virial components:
Potential Energy   :       -844.16427076358445 Eh          -22970.87762 eV
Kinetic Energy     :        421.11366935342886 Eh           11459.08551 eV
Virial Ratio       :          2.00459954686273

DFT components:
N(Alpha)           :       38.000043341022 electrons
N(Beta)            :       38.000043341022 electrons
N(Total)           :       76.000086682045 electrons
E(X)               :      -47.530480755268 Eh       
E(C)               :       -2.966373774566 Eh       
E(XC)              :      -50.496854529835 Eh       

---------------
SCF CONVERGENCE
---------------

  Last Energy change         ...   -7.0312e-09  Tolerance :   1.0000e-08
  Last MAX-Density change    ...    4.2567e-05  Tolerance :   1.0000e-07
  Last RMS-Density change    ...    1.3564e-06  Tolerance :   5.0000e-09
  Last DIIS Error            ...    1.2424e-03  Tolerance :   5.0000e-07
  Last Orbital Gradient      ...    4.5193e-05  Tolerance :   1.0000e-05
  Last Orbital Rotation      ...    7.4869e-05  Tolerance :   1.0000e-05


----------------
ORBITAL ENERGIES
----------------

  NO   OCC          E(Eh)            E(eV) 
   0   2.0000     -14.571914      -396.5219 
   1   2.0000     -14.567348      -396.3977 
   2   2.0000     -10.431319      -283.8506 
   3   2.0000     -10.387505      -282.6584 
   4   2.0000     -10.386675      -282.6358 
   5   2.0000     -10.375215      -282.3239 
   6   2.0000     -10.370568      -282.1975 
   7   2.0000     -10.307784      -280.4891 
   8   2.0000     -10.292590      -280.0756 
   9   2.0000     -10.264970      -279.3240 
  10   2.0000      -1.241632       -33.7865 
  11   2.0000      -1.123663       -30.5764 
  12   2.0000      -0.972090       -26.4519 
  13   2.0000      -0.943001       -25.6604 
  14   2.0000      -0.910658       -24.7803 
  15   2.0000      -0.866700       -23.5841 
  16   2.0000      -0.815622       -22.1942 
  17   2.0000      -0.790379       -21.5073 
  18   2.0000      -0.769169       -20.9301 
  19   2.0000      -0.726840       -19.7783 
  20   2.0000      -0.702385       -19.1129 
  21   2.0000      -0.669536       -18.2190 
  22   2.0000      -0.646189       -17.5837 
  23   2.0000      -0.641032       -17.4434 
  24   2.0000      -0.628965       -17.1150 
  25   2.0000      -0.620210       -16.8768 
  26   2.0000      -0.604646       -16.4533 
  27   2.0000      -0.593905       -16.1610 
  28   2.0000      -0.568641       -15.4735 
  29   2.0000      -0.564822       -15.3696 
  30   2.0000      -0.554882       -15.0991 
  31   2.0000      -0.518283       -14.1032 
  32   2.0000      -0.499350       -13.5880 
  33   2.0000      -0.483056       -13.1446 
  34   2.0000      -0.463710       -12.6182 
  35   2.0000      -0.456941       -12.4340 
  36   2.0000      -0.451119       -12.2756 
  37   2.0000      -0.429692       -11.6925 
  38   0.0000      -0.184307        -5.0152 
  39   0.0000      -0.154250        -4.1974 
  40   0.0000      -0.107664        -2.9297 
  41   0.0000      -0.092447        -2.5156 
  42   0.0000      -0.088321        -2.4033 
  43   0.0000      -0.078385        -2.1330 
  44   0.0000      -0.063870        -1.7380 
  45   0.0000      -0.058456        -1.5907 
  46   0.0000      -0.053500        -1.4558 
  47   0.0000      -0.037060        -1.0084 
  48   0.0000      -0.035857        -0.9757 
*Only the first 10 virtual orbitals were printed.

                    ********************************
                    * MULLIKEN POPULATION ANALYSIS *
                    ********************************

-----------------------
MULLIKEN ATOMIC CHARGES
-----------------------
   0 N :    0.011535
   1 N :   -0.024185
   2 C :   -0.189694
   3 C :   -0.173381
   4 C :   -0.197457
   5 C :    0.035356
   6 C :   -0.072115
   7 C :   -0.057521
   8 C :   -0.336077
   9 C :   -0.277144
  10 H :    0.163382
  11 H :    0.165435
  12 H :    0.115352
  13 H :    0.136109
  14 H :    0.091870
  15 H :    0.105034
  16 H :    0.222640
  17 H :    0.198590
  18 H :    0.200964
  19 H :    0.116180
  20 H :    0.124749
  21 H :    0.131078
  22 H :    0.157219
  23 H :    0.175371
  24 H :    0.176709
Sum of atomic charges:    1.0000000

--------------------------------
MULLIKEN REDUCED ORBITAL CHARGES
--------------------------------
  0 N s       :     3.460483  s :     3.460483
      pz      :     1.182699  p :     3.423790
      px      :     1.119574
      py      :     1.121518
      dz2     :     0.022068  d :     0.098528
      dxz     :     0.018064
      dyz     :     0.013488
      dx2y2   :     0.023666
      dxy     :     0.021241
      f0      :     0.000646  f :     0.005664
      f+1     :     0.000842
      f-1     :     0.000716
      f+2     :     0.000897
      f-2     :     0.000819
      f+3     :     0.000761
      f-3     :     0.000982

  1 N s       :     3.462578  s :     3.462578
      pz      :     1.204554  p :     3.459235
      px      :     1.116330
      py      :     1.138351
      dz2     :     0.021660  d :     0.096729
      dxz     :     0.014831
      dyz     :     0.015879
      dx2y2   :     0.021694
      dxy     :     0.022665
      f0      :     0.000565  f :     0.005643
      f+1     :     0.000840
      f-1     :     0.000728
      f+2     :     0.000687
      f-2     :     0.001073
      f+3     :     0.000825
      f-3     :     0.000924

  2 C s       :     3.298076  s :     3.298076
      pz      :     1.003520  p :     2.779682
      px      :     0.749834
      py      :     1.026327
      dz2     :     0.028913  d :     0.103893
      dxz     :     0.017204
      dyz     :     0.006521
      dx2y2   :     0.032751
      dxy     :     0.018503
      f0      :     0.000984  f :     0.008043
      f+1     :     0.001486
      f-1     :     0.000543
      f+2     :     0.000955
      f-2     :     0.001068
      f+3     :     0.001405
      f-3     :     0.001602

  3 C s       :     3.227905  s :     3.227905
      pz      :     0.990354  p :     2.855734
      px      :     0.937799
      py      :     0.927580
      dz2     :     0.017481  d :     0.083954
      dxz     :     0.007988
      dyz     :     0.018455
      dx2y2   :     0.015053
      dxy     :     0.024976
      f0      :     0.000980  f :     0.005788
      f+1     :     0.000714
      f-1     :     0.000430
      f+2     :     0.001026
      f-2     :     0.000246
      f+3     :     0.001296
      f-3     :     0.001096

  4 C s       :     3.227513  s :     3.227513
      pz      :     0.998157  p :     2.874321
      px      :     0.983941
      py      :     0.892223
      dz2     :     0.021449  d :     0.089769
      dxz     :     0.006776
      dyz     :     0.017003
      dx2y2   :     0.020572
      dxy     :     0.023969
      f0      :     0.000953  f :     0.005854
      f+1     :     0.000739
      f-1     :     0.000491
      f+2     :     0.001014
      f-2     :     0.000274
      f+3     :     0.001293
      f-3     :     0.001090

  5 C s       :     3.165111  s :     3.165111
      pz      :     0.964364  p :     2.658648
      px      :     0.820775
      py      :     0.873509
      dz2     :     0.019321  d :     0.125154
      dxz     :     0.022279
      dyz     :     0.020716
      dx2y2   :     0.036329
      dxy     :     0.026509
      f0      :     0.001009  f :     0.015731
      f+1     :     0.002723
      f-1     :     0.001981
      f+2     :     0.002451
      f-2     :     0.002797
      f+3     :     0.001869
      f-3     :     0.002902

  6 C s       :     3.190351  s :     3.190351
      pz      :     0.878845  p :     2.776562
      px      :     0.898616
      py      :     0.999101
      dz2     :     0.022407  d :     0.093556
      dxz     :     0.018255
      dyz     :     0.013138
      dx2y2   :     0.019528
      dxy     :     0.020228
      f0      :     0.001923  f :     0.011646
      f+1     :     0.001382
      f-1     :     0.001322
      f+2     :     0.001421
      f-2     :     0.002472
      f+3     :     0.002097
      f-3     :     0.001029

  7 C s       :     3.183355  s :     3.183355
      pz      :     0.924305  p :     2.772574
      px      :     1.007738
      py      :     0.840531
      dz2     :     0.016232  d :     0.090082
      dxz     :     0.018183
      dyz     :     0.016194
      dx2y2   :     0.026250
      dxy     :     0.013223
      f0      :     0.001520  f :     0.011510
      f+1     :     0.000828
      f-1     :     0.001955
      f+2     :     0.001967
      f-2     :     0.002259
      f+3     :     0.002067
      f-3     :     0.000915

  8 C s       :     3.309995  s :     3.309995
      pz      :     0.998383  p :     2.975941
      px      :     0.933738
      py      :     1.043820
      dz2     :     0.015656  d :     0.046434
      dxz     :     0.006432
      dyz     :     0.002884
      dx2y2   :     0.013612
      dxy     :     0.007851
      f0      :     0.000699  f :     0.003707
      f+1     :     0.000684
      f-1     :     0.000336
      f+2     :     0.000432
      f-2     :     0.000234
      f+3     :     0.000440
      f-3     :     0.000881

  9 C s       :     3.325781  s :     3.325781
      pz      :     1.091011  p :     2.886287
      px      :     0.932788
      py      :     0.862488
      dz2     :     0.006270  d :     0.059238
      dxz     :     0.009380
      dyz     :     0.013705
      dx2y2   :     0.018826
      dxy     :     0.011057
      f0      :     0.000589  f :     0.005838
      f+1     :     0.000233
      f-1     :     0.001187
      f+2     :    -0.000023
      f-2     :     0.001254
      f+3     :     0.001162
      f-3     :     0.001437

 10 H s       :     0.814894  s :     0.814894
      pz      :     0.013680  p :     0.021724
      px      :     0.003641
      py      :     0.004403

 11 H s       :     0.812719  s :     0.812719
      pz      :     0.004171  p :     0.021846
      px      :     0.003463
      py      :     0.014211

 12 H s       :     0.862981  s :     0.862981
      pz      :     0.012620  p :     0.021667
      px      :     0.004027
      py      :     0.005020

 13 H s       :     0.841921  s :     0.841921
      pz      :     0.005079  p :     0.021969
      px      :     0.010981
      py      :     0.005909

 14 H s       :     0.886217  s :     0.886217
      pz      :     0.005599  p :     0.021913
      px      :     0.009960
      py      :     0.006353

 15 H s       :     0.873488  s :     0.873488
      pz      :     0.012063  p :     0.021478
      px      :     0.004315
      py      :     0.005100

 16 H s       :     0.755340  s :     0.755340
      pz      :     0.010173  p :     0.022020
      px      :     0.004258
      py      :     0.007589

 17 H s       :     0.778581  s :     0.778581
      pz      :     0.006051  p :     0.022829
      px      :     0.004424
      py      :     0.012354

 18 H s       :     0.776223  s :     0.776223
      pz      :     0.008252  p :     0.022813
      px      :     0.011292
      py      :     0.003269

 19 H s       :     0.862480  s :     0.862480
      pz      :     0.012422  p :     0.021340
      px      :     0.004180
      py      :     0.004737

 20 H s       :     0.853854  s :     0.853854
      pz      :     0.005250  p :     0.021396
      px      :     0.010788
      py      :     0.005358

 21 H s       :     0.847294  s :     0.847294
      pz      :     0.004349  p :     0.021628
      px      :     0.004365
      py      :     0.012914

 22 H s       :     0.820989  s :     0.820989
      pz      :     0.008996  p :     0.021792
      px      :     0.004261
      py      :     0.008535

 23 H s       :     0.803094  s :     0.803094
      pz      :     0.010931  p :     0.021535
      px      :     0.003990
      py      :     0.006614

 24 H s       :     0.801744  s :     0.801744
      pz      :     0.005147  p :     0.021547
      px      :     0.012125
      py      :     0.004275



                     *******************************
                     * LOEWDIN POPULATION ANALYSIS *
                     *******************************

----------------------
LOEWDIN ATOMIC CHARGES
----------------------
   0 N :    0.286760
   1 N :    0.259124
   2 C :   -0.212051
   3 C :   -0.249785
   4 C :   -0.294857
   5 C :   -0.151518
   6 C :   -0.130371
   7 C :   -0.132896
   8 C :   -0.294311
   9 C :   -0.223616
  10 H :    0.152454
  11 H :    0.153304
  12 H :    0.143794
  13 H :    0.154745
  14 H :    0.130099
  15 H :    0.135175
  16 H :    0.162329
  17 H :    0.158667
  18 H :    0.157486
  19 H :    0.123651
  20 H :    0.125909
  21 H :    0.126957
  22 H :    0.139353
  23 H :    0.139644
  24 H :    0.139954

-------------------------------
LOEWDIN REDUCED ORBITAL CHARGES
-------------------------------
  0 N s       :     2.853239  s :     2.853239
      pz      :     1.172386  p :     3.492045
      px      :     1.145609
      py      :     1.174050
      dz2     :     0.068934  d :     0.342897
      dxz     :     0.064421
      dyz     :     0.055318
      dx2y2   :     0.078158
      dxy     :     0.076067
      f0      :     0.002893  f :     0.025059
      f+1     :     0.004067
      f-1     :     0.002650
      f+2     :     0.004362
      f-2     :     0.002331
      f+3     :     0.004281
      f-3     :     0.004475

  1 N s       :     2.858815  s :     2.858815
      pz      :     1.181382  p :     3.512274
      px      :     1.168928
      py      :     1.161965
      dz2     :     0.070653  d :     0.344938
      dxz     :     0.060736
      dyz     :     0.058524
      dx2y2   :     0.077206
      dxy     :     0.077819
      f0      :     0.002638  f :     0.024848
      f+1     :     0.003414
      f-1     :     0.002840
      f+2     :     0.003073
      f-2     :     0.004372
      f+3     :     0.003651
      f-3     :     0.004860

  2 C s       :     2.783410  s :     2.783410
      pz      :     1.029190  p :     2.943725
      px      :     0.891638
      py      :     1.022897
      dz2     :     0.113404  d :     0.433316
      dxz     :     0.083567
      dyz     :     0.026890
      dx2y2   :     0.133017
      dxy     :     0.076439
      f0      :     0.004718  f :     0.051600
      f+1     :     0.008400
      f-1     :     0.004278
      f+2     :     0.007021
      f-2     :     0.009495
      f+3     :     0.008318
      f-3     :     0.009371

  3 C s       :     2.783069  s :     2.783069
      pz      :     1.021315  p :     3.040099
      px      :     0.994510
      py      :     1.024275
      dz2     :     0.082104  d :     0.388010
      dxz     :     0.049947
      dyz     :     0.074532
      dx2y2   :     0.078356
      dxy     :     0.103071
      f0      :     0.004978  f :     0.038607
      f+1     :     0.003942
      f-1     :     0.003808
      f+2     :     0.007249
      f-2     :     0.004632
      f+3     :     0.007680
      f-3     :     0.006318

  4 C s       :     2.782115  s :     2.782115
      pz      :     1.030049  p :     3.065619
      px      :     1.032474
      py      :     1.003097
      dz2     :     0.092548  d :     0.407021
      dxz     :     0.049384
      dyz     :     0.071975
      dx2y2   :     0.094240
      dxy     :     0.098875
      f0      :     0.004939  f :     0.040102
      f+1     :     0.004254
      f-1     :     0.004146
      f+2     :     0.007169
      f-2     :     0.005015
      f+3     :     0.007922
      f-3     :     0.006657

  5 C s       :     2.765232  s :     2.765232
      pz      :     0.953878  p :     2.784914
      px      :     0.901368
      py      :     0.929668
      dz2     :     0.064596  d :     0.511031
      dxz     :     0.100032
      dyz     :     0.100859
      dx2y2   :     0.133067
      dxy     :     0.112478
      f0      :     0.006583  f :     0.090340
      f+1     :     0.016396
      f-1     :     0.009447
      f+2     :     0.015754
      f-2     :     0.011632
      f+3     :     0.011270
      f-3     :     0.019258

  6 C s       :     2.770853  s :     2.770853
      pz      :     0.906968  p :     2.869618
      px      :     0.973809
      py      :     0.988842
      dz2     :     0.079675  d :     0.421734
      dxz     :     0.088548
      dyz     :     0.072890
      dx2y2   :     0.090728
      dxy     :     0.089894
      f0      :     0.011745  f :     0.068165
      f+1     :     0.008317
      f-1     :     0.008204
      f+2     :     0.007956
      f-2     :     0.011285
      f+3     :     0.012602
      f-3     :     0.008055

  7 C s       :     2.772706  s :     2.772706
      pz      :     0.924077  p :     2.874574
      px      :     1.025502
      py      :     0.924995
      dz2     :     0.060266  d :     0.418420
      dxz     :     0.086952
      dyz     :     0.083487
      dx2y2   :     0.110028
      dxy     :     0.077687
      f0      :     0.009533  f :     0.067196
      f+1     :     0.004096
      f-1     :     0.012201
      f+2     :     0.009322
      f-2     :     0.011456
      f+3     :     0.012690
      f-3     :     0.007898

  8 C s       :     2.833092  s :     2.833092
      pz      :     1.062565  p :     3.173503
      px      :     1.045235
      py      :     1.065703
      dz2     :     0.078401  d :     0.261943
      dxz     :     0.045741
      dyz     :     0.017948
      dx2y2   :     0.076203
      dxy     :     0.043650
      f0      :     0.002875  f :     0.025773
      f+1     :     0.003806
      f-1     :     0.003131
      f+2     :     0.003717
      f-2     :     0.004613
      f+3     :     0.002715
      f-3     :     0.004916

  9 C s       :     2.836277  s :     2.836277
      pz      :     1.100761  p :     3.056947
      px      :     0.998870
      py      :     0.957316
      dz2     :     0.036342  d :     0.291305
      dxz     :     0.036054
      dyz     :     0.074588
      dx2y2   :     0.073540
      dxy     :     0.070780
      f0      :     0.004182  f :     0.039088
      f+1     :     0.003875
      f-1     :     0.005153
      f+2     :     0.001879
      f-2     :     0.006677
      f+3     :     0.007763
      f-3     :     0.009558

 10 H s       :     0.788613  s :     0.788613
      pz      :     0.035229  p :     0.058933
      px      :     0.010049
      py      :     0.013655

 11 H s       :     0.787601  s :     0.787601
      pz      :     0.012630  p :     0.059095
      px      :     0.009685
      py      :     0.036780

 12 H s       :     0.797592  s :     0.797592
      pz      :     0.032351  p :     0.058614
      px      :     0.012207
      py      :     0.014056

 13 H s       :     0.786366  s :     0.786366
      pz      :     0.015393  p :     0.058889
      px      :     0.027399
      py      :     0.016097

 14 H s       :     0.811013  s :     0.811013
      pz      :     0.016768  p :     0.058889
      px      :     0.025597
      py      :     0.016524

 15 H s       :     0.806465  s :     0.806465
      pz      :     0.031071  p :     0.058360
      px      :     0.013264
      py      :     0.014026

 16 H s       :     0.772636  s :     0.772636
      pz      :     0.029485  p :     0.065035
      px      :     0.013229
      py      :     0.022320

 17 H s       :     0.777077  s :     0.777077
      pz      :     0.017379  p :     0.064256
      px      :     0.013146
      py      :     0.033731

 18 H s       :     0.778024  s :     0.778024
      pz      :     0.023184  p :     0.064490
      px      :     0.031128
      py      :     0.010178

 19 H s       :     0.815944  s :     0.815944
      pz      :     0.033331  p :     0.060405
      px      :     0.012598
      py      :     0.014476

 20 H s       :     0.813621  s :     0.813621
      pz      :     0.016033  p :     0.060470
      px      :     0.028102
      py      :     0.016335

 21 H s       :     0.812574  s :     0.812574
      pz      :     0.012931  p :     0.060469
      px      :     0.012612
      py      :     0.034926

 22 H s       :     0.799183  s :     0.799183
      pz      :     0.026003  p :     0.061463
      px      :     0.013584
      py      :     0.021876

 23 H s       :     0.798362  s :     0.798362
      pz      :     0.032417  p :     0.061994
      px      :     0.011702
      py      :     0.017874

 24 H s       :     0.798008  s :     0.798008
      pz      :     0.015478  p :     0.062038
      px      :     0.032918
      py      :     0.013642



                      *****************************
                      * MAYER POPULATION ANALYSIS *
                      *****************************

  NA   - Mulliken gross atomic population
  ZA   - Total nuclear charge
  QA   - Mulliken gross atomic charge
  VA   - Mayer's total valence
  BVA  - Mayer's bonded valence
  FA   - Mayer's free valence

  ATOM       NA         ZA         QA         VA         BVA        FA
  0 N      6.9885     7.0000     0.0115     3.4269     3.4269     0.0000
  1 N      7.0242     7.0000    -0.0242     3.4408     3.4408     0.0000
  2 C      6.1897     6.0000    -0.1897     3.7970     3.7970    -0.0000
  3 C      6.1734     6.0000    -0.1734     3.7847     3.7847    -0.0000
  4 C      6.1975     6.0000    -0.1975     3.8569     3.8569    -0.0000
  5 C      5.9646     6.0000     0.0354     3.8789     3.8789    -0.0000
  6 C      6.0721     6.0000    -0.0721     3.9435     3.9435     0.0000
  7 C      6.0575     6.0000    -0.0575     3.8951     3.8951     0.0000
  8 C      6.3361     6.0000    -0.3361     3.9283     3.9283    -0.0000
  9 C      6.2771     6.0000    -0.2771     3.7890     3.7890    -0.0000
 10 H      0.8366     1.0000     0.1634     0.9613     0.9613    -0.0000
 11 H      0.8346     1.0000     0.1654     0.9603     0.9603    -0.0000
 12 H      0.8846     1.0000     0.1154     0.9760     0.9760    -0.0000
 13 H      0.8639     1.0000     0.1361     0.9758     0.9758    -0.0000
 14 H      0.9081     1.0000     0.0919     0.9511     0.9511    -0.0000
 15 H      0.8950     1.0000     0.1050     0.9598     0.9598    -0.0000
 16 H      0.7774     1.0000     0.2226     0.9493     0.9493    -0.0000
 17 H      0.8014     1.0000     0.1986     0.9618     0.9618     0.0000
 18 H      0.7990     1.0000     0.2010     0.9619     0.9619    -0.0000
 19 H      0.8838     1.0000     0.1162     0.9688     0.9688    -0.0000
 20 H      0.8753     1.0000     0.1247     0.9695     0.9695    -0.0000
 21 H      0.8689     1.0000     0.1311     0.9679     0.9679    -0.0000
 22 H      0.8428     1.0000     0.1572     0.9648     0.9648    -0.0000
 23 H      0.8246     1.0000     0.1754     0.9526     0.9526    -0.0000
 24 H      0.8233     1.0000     0.1767     0.9521     0.9521    -0.0000

  Mayer bond orders larger than 0.100000
B(  0-N ,  2-C ) :   0.8455 B(  0-N ,  5-C ) :   1.3569 B(  0-N ,  6-C ) :   1.1730 
B(  1-N ,  5-C ) :   1.3459 B(  1-N ,  7-C ) :   1.1655 B(  1-N ,  9-C ) :   0.8764 
B(  2-C ,  3-C ) :   0.9533 B(  2-C , 10-H ) :   0.9664 B(  2-C , 11-H ) :   0.9682 
B(  3-C ,  4-C ) :   0.9620 B(  3-C , 12-H ) :   0.9579 B(  3-C , 13-H ) :   0.9622 
B(  4-C ,  8-C ) :   0.9947 B(  4-C , 14-H ) :   0.9469 B(  4-C , 15-H ) :   0.9571 
B(  5-C , 16-H ) :   0.9278 B(  6-C ,  7-C ) :   1.6594 B(  6-C , 17-H ) :   0.9381 
B(  7-C , 18-H ) :   0.9332 B(  8-C , 19-H ) :   0.9721 B(  8-C , 20-H ) :   0.9761 
B(  8-C , 21-H ) :   0.9758 B(  9-C , 22-H ) :   0.9593 B(  9-C , 23-H ) :   0.9553 
B(  9-C , 24-H ) :   0.9535 

-------
TIMINGS
-------

Total SCF time: 0 days 0 hours 0 min 8 sec 

Total time                  ....       8.820 sec
Sum of individual times     ....       8.808 sec  ( 99.9%)

SCF preparation             ....       0.693 sec  (  7.9%)
Fock matrix formation       ....       7.347 sec  ( 83.3%)
  Startup                   ....       0.021 sec  (  0.3% of F)
  Split-RI-J                ....       0.717 sec  (  9.8% of F)
  Chain of spheres X        ....       5.451 sec  ( 74.2% of F)
  XC integration            ....       1.083 sec  ( 14.7% of F)
    XC Preparation          ....       0.000 sec  (  0.0% of XC)
    Basis function eval.    ....       0.255 sec  ( 23.5% of XC)
    Density eval.           ....       0.254 sec  ( 23.4% of XC)
    XC-Functional eval.     ....       0.026 sec  (  2.4% of XC)
    XC-Potential eval.      ....       0.402 sec  ( 37.1% of XC)
Diagonalization             ....       0.000 sec  (  0.0%)
Density matrix formation    ....       0.074 sec  (  0.8%)
Total Energy calculation    ....       0.039 sec  (  0.4%)
Population analysis         ....       0.078 sec  (  0.9%)
Orbital Transformation      ....       0.079 sec  (  0.9%)
Orbital Orthonormalization  ....       0.000 sec  (  0.0%)
DIIS solution               ....       0.344 sec  (  3.9%)
SOSCF solution              ....       0.154 sec  (  1.7%)
Finished LeanSCF after   8.8 sec

Maximum memory used throughout the entire LEANSCF-calculation: 46.9 MB


-------------------------------------------------------------------------------
                          DFT DISPERSION CORRECTION                            
                                                                               
                                DFTD4 V3.4.0                                   
-------------------------------------------------------------------------------
The B3LYP functional is recognized
Active option DFTDOPT                   ...         5   

-------------------------   ----------------
Dispersion correction           -0.034143057
-------------------------   ----------------


-------------------------   --------------------
FINAL SINGLE POINT ENERGY      -423.084744467468
-------------------------   --------------------

--------------------------------------------------------------------------
WARNING: There was an error initializing an OpenFabrics device.

  Local host:   ga00
  Local device: mlx5_0
--------------------------------------------------------------------------


           ************************************************************
[...]
      dxz     :     0.097576
      dyz     :     0.088059
      dx2y2   :     0.070065
      dxy     :     0.076670
      f0      :     0.014834  f :     0.067197
      f+1     :     0.009353
      f-1     :     0.009901
      f+2     :     0.006972
      f-2     :     0.009545
      f+3     :     0.010104
      f-3     :     0.006486

  7 C s       :     2.771312  s :     2.771312
      pz      :     0.915182  p :     2.878104
      px      :     1.027682
      py      :     0.935240
      dz2     :     0.075674  d :     0.421552
      dxz     :     0.106643
      dyz     :     0.077964
      dx2y2   :     0.095283
      dxy     :     0.065989
      f0      :     0.012163  f :     0.067053
      f+1     :     0.006736
      f-1     :     0.011681
      f+2     :     0.009336
      f-2     :     0.010768
      f+3     :     0.010196
      f-3     :     0.006174

  8 C s       :     2.832475  s :     2.832475
      pz      :     1.062832  p :     3.176934
      px      :     1.043352
      py      :     1.070750
      dz2     :     0.071214  d :     0.258148
      dxz     :     0.049438
      dyz     :     0.023037
      dx2y2   :     0.070884
      dxy     :     0.043575
      f0      :     0.002656  f :     0.025327
      f+1     :     0.003959
      f-1     :     0.003453
      f+2     :     0.003319
      f-2     :     0.004506
      f+3     :     0.002526
      f-3     :     0.004908

  9 C s       :     2.838314  s :     2.838314
      pz      :     1.100483  p :     3.054211
      px      :     0.973049
      py      :     0.980678
      dz2     :     0.040667  d :     0.283310
      dxz     :     0.027468
      dyz     :     0.069531
      dx2y2   :     0.072509
      dxy     :     0.073135
      f0      :     0.003137  f :     0.037465
      f+1     :     0.004863
      f-1     :     0.004795
      f+2     :     0.002769
      f-2     :     0.005361
      f+3     :     0.007365
      f-3     :     0.009174

 10 H s       :     0.790361  s :     0.790361
      pz      :     0.033992  p :     0.059701
      px      :     0.010243
      py      :     0.015466

 11 H s       :     0.788271  s :     0.788271
      pz      :     0.012793  p :     0.060253
      px      :     0.009998
      py      :     0.037462

 12 H s       :     0.798872  s :     0.798872
      pz      :     0.030894  p :     0.059020
      px      :     0.012543
      py      :     0.015583

 13 H s       :     0.785524  s :     0.785524
      pz      :     0.016262  p :     0.059276
      px      :     0.026530
      py      :     0.016484

 14 H s       :     0.812213  s :     0.812213
      pz      :     0.017163  p :     0.058445
      px      :     0.025039
      py      :     0.016243

 15 H s       :     0.805954  s :     0.805954
      pz      :     0.030126  p :     0.058329
      px      :     0.013178
      py      :     0.015025

 16 H s       :     0.775166  s :     0.775166
      pz      :     0.034670  p :     0.064937
      px      :     0.010921
      py      :     0.019345

 17 H s       :     0.776921  s :     0.776921
      pz      :     0.020355  p :     0.063834
      px      :     0.014361
      py      :     0.029118

 18 H s       :     0.777254  s :     0.777254
      pz      :     0.027329  p :     0.063957
      px      :     0.025569
      py      :     0.011059

 19 H s       :     0.816507  s :     0.816507
      pz      :     0.032417  p :     0.060878
      px      :     0.012716
      py      :     0.015745

 20 H s       :     0.814066  s :     0.814066
      pz      :     0.016890  p :     0.061022
      px      :     0.027574
      py      :     0.016559

 21 H s       :     0.812352  s :     0.812352
      pz      :     0.013112  p :     0.061279
      px      :     0.012925
      py      :     0.035242

 22 H s       :     0.800402  s :     0.800402
      pz      :     0.031381  p :     0.062546
      px      :     0.012025
      py      :     0.019140

 23 H s       :     0.799052  s :     0.799052
      pz      :     0.029146  p :     0.062913
      px      :     0.011184
      py      :     0.022582

 24 H s       :     0.798789  s :     0.798789
      pz      :     0.013910  p :     0.062943
      px      :     0.032935
      py      :     0.016098



                      *****************************
                      * MAYER POPULATION ANALYSIS *
                      *****************************

  NA   - Mulliken gross atomic population
  ZA   - Total nuclear charge
  QA   - Mulliken gross atomic charge
  VA   - Mayer's total valence
  BVA  - Mayer's bonded valence
  FA   - Mayer's free valence

  ATOM       NA         ZA         QA         VA         BVA        FA
  0 N      7.0023     7.0000    -0.0023     3.4298     3.4298    -0.0000
  1 N      7.0310     7.0000    -0.0310     3.4513     3.4513     0.0000
  2 C      6.1722     6.0000    -0.1722     3.7952     3.7952     0.0000
  3 C      6.1859     6.0000    -0.1859     3.7826     3.7826    -0.0000
  4 C      6.1871     6.0000    -0.1871     3.8556     3.8556    -0.0000
  5 C      5.9482     6.0000     0.0518     3.8889     3.8889    -0.0000
  6 C      6.0789     6.0000    -0.0789     3.9300     3.9300    -0.0000
  7 C      6.0516     6.0000    -0.0516     3.8851     3.8851    -0.0000
  8 C      6.3336     6.0000    -0.3336     3.9191     3.9191    -0.0000
  9 C      6.2685     6.0000    -0.2685     3.7872     3.7872     0.0000
 10 H      0.8447     1.0000     0.1553     0.9638     0.9638     0.0000
 11 H      0.8308     1.0000     0.1692     0.9591     0.9591     0.0000
 12 H      0.8823     1.0000     0.1177     0.9741     0.9741     0.0000
 13 H      0.8646     1.0000     0.1354     0.9740     0.9740    -0.0000
 14 H      0.9106     1.0000     0.0894     0.9570     0.9570     0.0000
 15 H      0.8979     1.0000     0.1021     0.9615     0.9615    -0.0000
 16 H      0.7869     1.0000     0.2131     0.9543     0.9543    -0.0000
 17 H      0.8039     1.0000     0.1961     0.9636     0.9636    -0.0000
 18 H      0.8013     1.0000     0.1987     0.9626     0.9626    -0.0000
 19 H      0.8844     1.0000     0.1156     0.9682     0.9682     0.0000
 20 H      0.8759     1.0000     0.1241     0.9691     0.9691     0.0000
 21 H      0.8661     1.0000     0.1339     0.9679     0.9679    -0.0000
 22 H      0.8437     1.0000     0.1563     0.9647     0.9647     0.0000
 23 H      0.8243     1.0000     0.1757     0.9527     0.9527     0.0000
 24 H      0.8234     1.0000     0.1766     0.9523     0.9523     0.0000

  Mayer bond orders larger than 0.100000
B(  0-N ,  2-C ) :   0.8431 B(  0-N ,  5-C ) :   1.3698 B(  0-N ,  6-C ) :   1.1604 
B(  1-N ,  5-C ) :   1.3581 B(  1-N ,  7-C ) :   1.1582 B(  1-N ,  9-C ) :   0.8749 
B(  2-C ,  3-C ) :   0.9491 B(  2-C , 10-H ) :   0.9662 B(  2-C , 11-H ) :   0.9662 
B(  3-C ,  4-C ) :   0.9571 B(  3-C , 12-H ) :   0.9623 B(  3-C , 13-H ) :   0.9585 
B(  4-C ,  8-C ) :   0.9880 B(  4-C , 14-H ) :   0.9557 B(  4-C , 15-H ) :   0.9610 
B(  5-C , 16-H ) :   0.9272 B(  6-C ,  7-C ) :   1.6645 B(  6-C , 17-H ) :   0.9411 
B(  7-C , 18-H ) :   0.9365 B(  8-C , 19-H ) :   0.9720 B(  8-C , 20-H ) :   0.9750 
B(  8-C , 21-H ) :   0.9760 B(  9-C , 22-H ) :   0.9594 B(  9-C , 23-H ) :   0.9553 
B(  9-C , 24-H ) :   0.9536 

-------
TIMINGS
-------

Total SCF time: 0 days 0 hours 0 min 4 sec 

Total time                  ....       4.984 sec
Sum of individual times     ....       4.948 sec  ( 99.3%)

SCF preparation             ....       0.662 sec  ( 13.3%)
Fock matrix formation       ....       3.973 sec  ( 79.7%)
  Startup                   ....       0.010 sec  (  0.3% of F)
  Split-RI-J                ....       0.254 sec  (  6.4% of F)
  Chain of spheres X        ....       3.273 sec  ( 82.4% of F)
  XC integration            ....       0.408 sec  ( 10.3% of F)
    Basis function eval.    ....       0.093 sec  ( 22.7% of XC)
    Density eval.           ....       0.105 sec  ( 25.7% of XC)
    XC-Functional eval.     ....       0.010 sec  (  2.6% of XC)
    XC-Potential eval.      ....       0.131 sec  ( 32.0% of XC)
Diagonalization             ....       0.000 sec  (  0.0%)
Density matrix formation    ....       0.025 sec  (  0.5%)
Total Energy calculation    ....       0.018 sec  (  0.4%)
Population analysis         ....       0.057 sec  (  1.2%)
Orbital Transformation      ....       0.040 sec  (  0.8%)
Orbital Orthonormalization  ....       0.000 sec  (  0.0%)
DIIS solution               ....       0.046 sec  (  0.9%)
SOSCF solution              ....       0.127 sec  (  2.6%)
Finished LeanSCF after   5.0 sec

Maximum memory used throughout the entire LEANSCF-calculation: 47.9 MB
[ga00:426808] 24 more processes have sent help message help-mpi-btl-openib.txt / error in device init
[ga00:426808] Set MCA parameter "orte_base_help_aggregate" to 0 to see all help / error messages


-------------------------------------------------------------------------------
                          DFT DISPERSION CORRECTION                            
                                                                               
                                DFTD4 V3.4.0                                   
-------------------------------------------------------------------------------
The B3LYP functional is recognized
Active option DFTDOPT                   ...         5   

-------------------------   ----------------
Dispersion correction           -0.033760001
-------------------------   ----------------


-------------------------   --------------------
FINAL SINGLE POINT ENERGY      -423.088142836513
-------------------------   --------------------

                                *** OPTIMIZATION RUN DONE ***

--------------------------------------------------------------------------
WARNING: There was an error initializing an OpenFabrics device.

  Local host:   ga00
  Local device: mlx5_0
--------------------------------------------------------------------------


           ************************************************************
           *        Program running with 25 parallel MPI-processes    *
           *              working on a common directory               *
           ************************************************************

------------------------------------------------------------------------------
                              ORCA PROPERTY CALCULATIONS
------------------------------------------------------------------------------

GBWName                                 ... BMI.gbw
Number of atoms                         ...     25
Number of basis functions               ...    400
Max core memory                         ...   5000 MB

Electric properties:
Dipole moment                           ... YES
Quadrupole moment                       ...  NO
Static polarizability (Dipole/Dipole)   ...  NO
Static polarizability (Dipole/Quad.)    ...  NO
Static polarizability (Quad./Quad.)     ...  NO
Static polarizability (Velocity)        ...  NO

Atomic electric properties:
Dipole moment                           ...  NO
Quadrupole moment                       ...  NO
Static polarizability                   ...  NO

Choice of electric origin               ... Center of mass
Position of electric origin             ...     0.069358    -0.101051    -0.024600

General magnetic properties:
Magnetizability                         ...  NO

EPR properties:
g-Tensor (aka g-matrix)                 ...  NO
Zero-Field splitting spin-orbit         ...  NO
Zero-field splitting spin-spin          ...  NO
Hyperfine couplings                     ...  NO (   0 nuclei)
Quadrupole couplings                    ...  NO (   0 nuclei)
Contact density                         ...  NO (   0 nuclei)

NMR properties:
Chemical shifts                         ...  NO (   0 nuclei)
Spin-rotation constants                 ...  NO (   0 nuclei)
Spin-spin couplings                     ...  NO (   0 nuclei,    0 pairs)

Choice of magnetic origin               ... GIAO
Position of magnetic origin             ...     0.000000     0.000000     0.000000

Properties with geometric perturbations:
SCF Hessian                             ...  NO
IR spectrum                             ...  NO
VCD spectrum                            ...  NO
X-ray spectroscopy properties:
SCF XES/XAS/RIXS spectra                ...  NO


-------------
DIPOLE MOMENT
-------------

Method             : SCF
Type of density    : Electron Density
Multiplicity       :   1
Irrep              :   0
Energy             :  -423.0543828359249687 Eh
Relativity type    : 
Basis              : AO
                                X                 Y                 Z
Electronic contribution:     -9.720706640       3.611724736      -0.665788528
Nuclear contribution   :      8.074483604      -3.635973064       0.304354570
                        -----------------------------------------
Total Dipole Moment    :     -1.646223036      -0.024248328      -0.361433958
                        -----------------------------------------
Magnitude (a.u.)       :      1.685607538
Magnitude (Debye)      :      4.284473868



--------------------
Rotational spectrum 
--------------------
 
Rotational constants in cm-1:             0.082711             0.023150             0.021198 
Rotational constants in MHz :          2479.625757           694.013094           635.507760 

Dipole components along the rotational axes: 
x,y,z [a.u.] :     1.657138     0.055610    -0.303436 
x,y,z [Debye]:     4.212111     0.141349    -0.771272 

 

Dipole moment calculation done in   0.0 sec 

Maximum memory used throughout the entire PROP-calculation: 24.2 MB
[ga00:426989] 24 more processes have sent help message help-mpi-btl-openib.txt / error in device init
[ga00:426989] Set MCA parameter "orte_base_help_aggregate" to 0 to see all help / error messages
--------------------------------------------------------------------------
WARNING: There was an error initializing an OpenFabrics device.

  Local host:   ga00
  Local device: mlx5_0
--------------------------------------------------------------------------
[ga00:427107] 24 more processes have sent help message help-mpi-btl-openib.txt / error in device init
[ga00:427107] Set MCA parameter "orte_base_help_aggregate" to 0 to see all help / error messages

--------------------------------
SUGGESTED CITATIONS FOR THIS RUN
--------------------------------

Below you find a list of papers that are relevant to this ORCA run
We neither can nor want to force you to cite these papers, but we appreciate if you do
You receive ORCA, which is the product of decades of hard work by many enthusiastic individuals, for free
The only thing we kindly ask in return is that you cite our papers,
We deeply appreciate it, if you show your appreciation for ORCA by not just citing the generic ORCA reference.

Please note that relegating all ORCA citations to the supporting information does *not* help us.
SI sections are not indexed - citations you put there will not count into any citation statistics
But we need these citations in order to attract the funding resources that allow us to do what we are doing

Therefore, if you are a happy ORCA user, please consider citing a few of the papers listed below in the main body of your paper

In addition to the list printed below, the program has created the file BMI.bibtex that contains the list in bibtex format
You can import this file easily into all common literature databanks and citation aid programs


List of essential papers. We consider these as the minimum necessary citations

  1. Neese,F.
     Software update: the ORCA program system, version 5.0
     WIRES Comput. Molec. Sci., 2022 12(1)e1606
     doi.org/10.1002/wcms.1606

List of papers to cite with high priority. The work reported in these papers was absolutely
necessary for this run to complete.
Our perspective: the developers of density functionals and basis sets usually get cited in chemistry papers
Good! But without the algorithms to do something with them, the functionals or basis sets would not do anything.
Hence, in our opinion, the algorithm design and method developments papers are equally worthy of getting cited

  1. Neese,F.
     An improvement of the resolution of the identity approximation for the formation of the Coulomb matrix
     J. Comp. Chem., 2003 24(14)1740-1747
     doi.org/10.1002/jcc.10318
  2. Neese,F.; Wennmohs,F.; Hansen,A.; Becker,U.
     Efficient, approximate and parallel Hartree-Fock and hybrid DFT calculations. A 'chain-of-spheres' algorithm for the Hartree-Fock exchange
     Chem. Phys., 2009 356(1-3)98-109
     doi.org/10.1016/j.chemphys.2008.10.036
  3. Helmich-Paris,B.; de Souza,B.; Neese,F.; Izsák,R.
     An improved chain of spheres for exchange algorithm
     J. Chem. Phys., 2021 155 104109
     doi.org/doi: 10.1063/5.0058766.
  4. Neese,F.
     The SHARK Integral Generation and Digestion System
     J. Comp. Chem., 2022  1-16
     doi.org/10.1002/jcc.26942
  5. Caldeweyher,E.; Bannwarth,C.; Grimme,S.
     Extension of the D3 dispersion coefficient model
     J. Chem. Phys., 2017 147 034112
     doi.org/10.1063/1.4993215
  6. Caldeweyher,E.; Ehlert,S.; Hansen,A.; Neugebauer,H.; Spicher,S.; Bannwarth,C.; Grimme,S.
     A generally applicable atomic-charge dependent London dispersion correction
     J. Chem. Phys., 2019 150 154122
     doi.org/10.1063/1.5090222
  7. Caldeweyher,E.; Mewes,J.; Ehlert,S.; Grimme,S.
     Extension and evaluation of the D4 London-dispersion model for periodic systems
     Phys. Chem. Chem. Phys., 2020 22(16)8499-8512
     doi.org/10.1039/D0CP00502A
  8. Wittmann,L.; Gordiy,I.; Friede,M.; Helmich-Paris,B.; Grimme,S.; Hansen,A.; Bursch,M.
     Extension of the D3 and D4 London Dispersion Corrections to the full Actinides Series
     Phys. Chem. Chem. Phys., 2024 26(32)21379-21394
     doi.org/https://doi.org/10.1039/D4CP01514B 

List of suggested additional citations. These are papers that are important in the 'surrounding' of 
of this run, or papers that preceded the highly important papers. If you like your results we are grateful for a citation.

  1. Izsak,R.; Neese,F.
     An overlap fitted chain of spheres exchange method
     J. Chem. Phys., 2011 135 144105
     doi.org/10.1063/1.3646921
  2. Izsak,R.; Hansen,A.; Neese,F.
     The resolution of identity and chain of spheres approximations for the LPNO-CCSD singles Fock term
     Molec. Phys., 2012 110 2413-2417
     doi.org/10.1080/00268976.2012.687466
  3. Neese,F.
     The ORCA program system
     WIRES Comput. Molec. Sci., 2012 2(1)73-78
     doi.org/10.1002/wcms.81
  4. Izsak,R.; Neese,F.; Klopper,W.
     Robust fitting techniques in the chain of spheres approximation to the Fock exchange: The role of the complementary space
     J. Chem. Phys., 2013 139 
     doi.org/10.1063/1.4819264
  5. Neese,F.
     Software update: the ORCA program system, version 4.0
     WIRES Comput. Molec. Sci., 2018 8(1)1-6
     doi.org/10.1002/wcms.1327
  6. Neese,F.; Wennmohs,F.; Becker,U.; Riplinger,C.
     The ORCA quantum chemistry program package
     J. Chem. Phys., 2020 152 Art. No. L224108
     doi.org/10.1063/5.0004608

List of optional additional citations

  1. Neese,F.
     Approximate second-order SCF convergence for spin unrestricted wavefunctions
     Chem. Phys. Lett., 2000 325(1-3)93-98
     doi.org/10.1016/s0009-2614(00)00662-x

Timings for individual modules:

Sum of individual times          ...      195.870 sec (=   3.265 min)
Startup calculation              ...       23.779 sec (=   0.396 min)  12.1 %
SCF iterations                   ...      109.308 sec (=   1.822 min)  55.8 %
Property calculations            ...        0.948 sec (=   0.016 min)   0.5 %
SCF Gradient evaluation          ...       61.765 sec (=   1.029 min)  31.5 %
Geometry relaxation              ...        0.071 sec (=   0.001 min)   0.0 %
                             ****ORCA TERMINATED NORMALLY****
TOTAL RUN TIME: 0 days 0 hours 3 minutes 27 seconds 325 msec
