
     Program POST-PROC v.7.4.1 starts on 13Apr2025 at 23:26:33 

     This program is part of the open-source Quantum ESPRESSO suite
     for quantum simulation of materials; please cite
         "P. Giannozzi et al., J. Phys.:Condens. Matter 21 395502 (2009);
         "P. Giannozzi et al., J. Phys.:Condens. Matter 29 465901 (2017);
         "P. Giannozzi et al., J. Chem. Phys. 152 154105 (2020);
          URL http://www.quantum-espresso.org", 
     in publications or presentations arising from this work. More details at
     http://www.quantum-espresso.org/quote

     Parallel version (MPI), running on    31 processors

     MPI processes distributed on     1 nodes
     R & G space division:  proc/nbgrp/npool/nimage =      31
     26798 MiB available memory on the printing compute node when the environment starts


     Reading xml data from directory:

     ./tmp/MIL125_NH2_convtest.save/
     file C.pbe-n-kjpaw_psl.1.0.0.UPF: wavefunction(s)  2S 2P renormalized
     file O.pbe-n-kjpaw_psl.0.1.UPF: wavefunction(s)  2P renormalized

     IMPORTANT: XC functional enforced from input :
     Exchange-correlation= PBE
                           (   1   4   3   4   0   0   0)
     Any further DFT definition will be discarded
     Please, verify this is what you really want


     Parallelization info
     --------------------
     sticks:   dense  smooth     PW     G-vecs:    dense   smooth      PW
     Min        1349     674    168               179511    63460    7929
     Max        1350     675    169               179514    63463    7933
     Sum       41835   20921   5225              5564879  1967325  245841

     Using Slab Decomposition


     negative rho (up, down):  9.792E-03 0.000E+00

     Calling punch_plot, plot_num =   0
     Writing data to file  valence_density
     Reading data from file  valence_density

     Writing data to be plotted to file valence_density.cube
     Plot Type: 3D                     Output format: Gaussian cube

     POST-PROC    :     25.44s CPU     26.65s WALL


   This run was terminated on:  23:27: 0  13Apr2025            

=------------------------------------------------------------------------------=
   JOB DONE.
=------------------------------------------------------------------------------=
