--------------------------------------------------------------------------
WARNING: There was an error initializing an OpenFabrics device.

  Local host:   ga01
  Local device: mlx5_0
--------------------------------------------------------------------------

     Program PWSCF v.7.3.1 starts on 10Apr2025 at 17:19:31 

     This program is part of the open-source Quantum ESPRESSO suite
     for quantum simulation of materials; please cite
         "P. Giannozzi et al., J. Phys.:Condens. Matter 21 395502 (2009);
         "P. Giannozzi et al., J. Phys.:Condens. Matter 29 465901 (2017);
         "P. Giannozzi et al., J. Chem. Phys. 152 154105 (2020);
          URL http://www.quantum-espresso.org", 
     in publications or presentations arising from this work. More details at
     http://www.quantum-espresso.org/quote

     Parallel version (MPI), running on    30 processors

     MPI processes distributed on     1 nodes
     180070 MiB available memory on the printing compute node when the environment starts

     Waiting for input...
     Reading input from standard input

     Current dimensions of program PWSCF are:
     Max number of different atomic species (ntypx) = 10
     Max number of k-points (npk) =  40000
     Max angular momentum in pseudopotentials (lmaxx) =  4
     file C.pbe-n-kjpaw_psl.1.0.0.UPF: wavefunction(s)  2S 2P renormalized
     file O.pbe-n-kjpaw_psl.0.1.UPF: wavefunction(s)  2P renormalized

     R & G space division:  proc/nbgrp/npool/nimage =      30
     Subspace diagonalization in iterative solution of the eigenvalue problem:
     one sub-group per band group will be used
     custom distributed-memory algorithm (size of sub-group:  3*  3 procs)


     Parallelization info
     --------------------
     sticks:   dense  smooth     PW     G-vecs:    dense   smooth      PW
     Min         648     370     92                58737    25369    3167
     Max         649     371     93                58740    25373    3170
     Sum       19453   11103   2769              1762151   761105   95047

     Using Slab Decomposition



     bravais-lattice index     =            0
     lattice parameter (alat)  =      30.7168  a.u.
     unit-cell volume          =   22271.6335 (a.u.)^3
     number of atoms/cell      =          124
     number of atomic types    =            5
     number of electrons       =       526.00
     number of Kohn-Sham states=          263
     kinetic-energy cutoff     =      40.0000  Ry
     charge density cutoff     =     280.0000  Ry
     scf convergence threshold =      1.0E-06
     mixing beta               =       0.4000
     number of iterations used =            8  plain     mixing
     energy convergence thresh.=      1.0E-04
     force convergence thresh. =      1.0E-03
     press convergence thresh. =      5.0E-01
     Exchange-correlation= SLA  PW   PBX  PBC
                           (   1   4   3   4   0   0   0)
     nstep                     =          300


     celldm(1)=  30.716808  celldm(2)=   0.000000  celldm(3)=   0.000000
     celldm(4)=   0.000000  celldm(5)=   0.000000  celldm(6)=   0.000000

     crystal axes: (cart. coord. in units of alat)
               a(1) = (   1.000000   0.000000   0.000000 )  
               a(2) = (  -0.378163   0.925739   0.000000 )  
               a(3) = (  -0.310919  -0.462870   0.830109 )  

     reciprocal axes: (cart. coord. in units 2 pi/alat)
               b(1) = (  1.000000  0.408499  0.602330 )  
               b(2) = ( -0.000000  1.080218  0.602330 )  
               b(3) = (  0.000000 -0.000000  1.204661 )  


     PseudoPot. # 1 for Ti read from file:
     /home/yongsang/Research/PSID_server_room/qe/[00]QE/qepseudo/SSSP_1.3.0_PBE_efficiency/ti_pbe_v1.4.uspp.F.UPF
     MD5 check sum: 88a00a6731bd790ddea75d31a80cb452
     Pseudo is Ultrasoft + core correction, Zval = 12.0
     Generated by new atomic code, or converted to UPF format
     Using radial grid of  851 points,  6 beta functions with: 
                l(1) =   0
                l(2) =   0
                l(3) =   1
                l(4) =   1
                l(5) =   2
                l(6) =   2
     Q(r) pseudized with  6 coefficients,  rinner =    1.000   1.000   1.000
                                                       1.000   1.000

     PseudoPot. # 2 for N  read from file:
     /home/yongsang/Research/PSID_server_room/qe/[00]QE/qepseudo/SSSP_1.3.0_PBE_efficiency/N.pbe-n-radius_5.UPF
     MD5 check sum: 16739722b17309cd8fe442a2ace49922
     Pseudo is Ultrasoft + core correction, Zval =  5.0
     Generated using "atomic" code by A. Dal Corso  v.5.1
     Using radial grid of 1085 points,  4 beta functions with: 
                l(1) =   0
                l(2) =   0
                l(3) =   1
                l(4) =   1
     Q(r) pseudized with 0 coefficients 


     PseudoPot. # 3 for C  read from file:
     /home/yongsang/Research/PSID_server_room/qe/[00]QE/qepseudo/SSSP_1.3.0_PBE_efficiency/C.pbe-n-kjpaw_psl.1.0.0.UPF
     MD5 check sum: 5d2aebdfa2cae82b50a7e79e9516da0f
     Pseudo is Projector augmented-wave + core cor, Zval =  4.0
     Generated using "atomic" code by A. Dal Corso  v.5.1
     Shape of augmentation charge: PSQ
     Using radial grid of 1073 points,  4 beta functions with: 
                l(1) =   0
                l(2) =   0
                l(3) =   1
                l(4) =   1
     Q(r) pseudized with 0 coefficients 


     PseudoPot. # 4 for H  read from file:
     /home/yongsang/Research/PSID_server_room/qe/[00]QE/qepseudo/SSSP_1.3.0_PBE_efficiency/H.pbe-rrkjus_psl.1.0.0.UPF
     MD5 check sum: f52b6d4d1c606e5624b1dc7b2218f220
     Pseudo is Ultrasoft, Zval =  1.0
     Generated using "atomic" code by A. Dal Corso  v.5.1
     Using radial grid of  929 points,  2 beta functions with: 
                l(1) =   0
                l(2) =   0
     Q(r) pseudized with 0 coefficients 


     PseudoPot. # 5 for O  read from file:
     /home/yongsang/Research/PSID_server_room/qe/[00]QE/qepseudo/SSSP_1.3.0_PBE_efficiency/O.pbe-n-kjpaw_psl.0.1.UPF
     MD5 check sum: 0234752ac141de4415c5fc33072bef88
     Pseudo is Projector augmented-wave + core cor, Zval =  6.0
     Generated using "atomic" code by A. Dal Corso  v.5.0.99 svn rev. 10869
     Shape of augmentation charge: BESSEL
     Using radial grid of 1095 points,  4 beta functions with: 
                l(1) =   0
                l(2) =   0
                l(3) =   1
                l(4) =   1
     Q(r) pseudized with 0 coefficients 


     atomic species   valence    mass     pseudopotential
     Ti               12.00    47.86700     Ti( 1.00)
     N                 5.00    14.00674     N ( 1.00)
     C                 4.00    12.01070     C ( 1.00)
     H                 1.00     1.00794     H ( 1.00)
     O                 6.00    15.99940     O ( 1.00)

     No symmetry found


                                    s                        frac. trans.

      isym =  1     identity                                     

 cryst.   s( 1) = (     1          0          0      )
                  (     0          1          0      )
                  (     0          0          1      )

 cart.    s( 1) = (  1.0000000  0.0000000  0.0000000 )
                  (  0.0000000  1.0000000  0.0000000 )
                  (  0.0000000  0.0000000  1.0000000 )


   Cartesian axes

     site n.     atom                  positions (alat units)
         1        Ti     tau(   1) = (  -0.1943417   0.1305430   0.7153135  )
         2        Ti     tau(   2) = (   0.5052601   0.3323264   0.1147958  )
         3        Ti     tau(   3) = (   0.0952930  -0.0640103   0.5959936  )
         4        Ti     tau(   4) = (   0.2156253   0.5268797   0.2341157  )
         5        Ti     tau(   5) = (   0.1165768   0.5934126   0.1147958  )
         6        Ti     tau(   6) = (   0.1943416  -0.1305432   0.7153135  )
         7        Ti     tau(   7) = (  -0.0952932   0.0640101   0.5959936  )
         8        Ti     tau(   8) = (   0.4062115   0.3988592   0.2341157  )
         9        H      tau(   9) = (   0.2273033   0.1012540   0.4517679  )
        10        H      tau(  10) = (  -0.0077772  -0.2487142   0.4517679  )
        11        H      tau(  11) = (   0.3186955   0.7115836   0.3783414  )
        12        H      tau(  12) = (  -0.1965246   0.3859474   0.6978820  )
        13        H      tau(  13) = (   0.5074430   0.0769219   0.1322273  )
        14        H      tau(  14) = (  -0.4316051   0.0359792   0.6978820  )
        15        H      tau(  15) = (   0.7425234   0.4268902   0.1322273  )
        16        H      tau(  16) = (   0.1965245  -0.3859476   0.6978820  )
        17        H      tau(  17) = (  -0.1206866   0.4988488   0.1322273  )
        18        H      tau(  18) = (   0.3031413   0.2141553   0.3783414  )
        19        H      tau(  19) = (   0.0077771   0.2487141   0.4517679  )
        20        H      tau(  20) = (  -0.2273034  -0.1012542   0.4517679  )
        21        H      tau(  21) = (   0.2092045   0.5311927   0.0000000  )
        22        H      tau(  22) = (   0.4126324   0.3945463   0.0000000  )
        23        H      tau(  23) = (  -0.0000001  -0.0000001   0.7075785  )
        24        H      tau(  24) = (   0.3109184   0.4628695   0.1225308  )
        25        H      tau(  25) = (   0.2215666  -0.1488307   0.3760320  )
        26        H      tau(  26) = (   0.0893518   0.6117000   0.4540772  )
        27        H      tau(  27) = (  -0.3769339   0.2531937   0.5631968  )
        28        H      tau(  28) = (   0.6878522   0.2096757   0.2669125  )
        29        H      tau(  29) = (  -0.2215666   0.1488305   0.3760320  )
        30        H      tau(  30) = (  -0.0660154   0.7160632   0.2669125  )
        31        H      tau(  31) = (   0.1121090   0.7945726   0.1624469  )
        32        H      tau(  32) = (   0.4896740  -0.0778133   0.1942901  )
        33        H      tau(  33) = (   0.4148455  -0.0211406   0.6399180  )
        34        H      tau(  34) = (   0.3992774  -0.0764526   0.6635636  )
        35        H      tau(  35) = (   0.4800361   0.3207201   0.4867173  )
        36        H      tau(  36) = (   0.4983084   0.3655456   0.4477597  )
        37        H      tau(  37) = (   0.3839784  -0.2911586   0.6118789  )
        38        H      tau(  38) = (   0.3917397  -0.2299066   0.6188689  )
        39        H      tau(  39) = (   0.0724818   0.1080024   0.4789719  )
        40        H      tau(  40) = (   0.0822172   0.3548501   0.3831412  )
        41        H      tau(  41) = (   0.3891860   0.5766672   0.3541815  )
        42        H      tau(  42) = (   0.5494803   0.5654299   0.3969331  )
        43        C      tau(  43) = (   0.5510999   0.3015349   0.2893371  )
        44        C      tau(  44) = (  -0.2401815   0.1613345   0.5407722  )
        45        C      tau(  45) = (   0.2401814  -0.1613346   0.5407722  )
        46        C      tau(  46) = (   0.0707370   0.6242040   0.2893371  )
        47        C      tau(  47) = (   0.6049578   0.2653575   0.3542176  )
        48        C      tau(  48) = (  -0.2940394   0.1975119   0.4758917  )
        49        C      tau(  49) = (   0.2940393  -0.1975120   0.4758917  )
        50        C      tau(  50) = (   0.0168790   0.6603814   0.3542176  )
        51        C      tau(  51) = (   0.5864332   0.2778008   0.4376842  )
        52        C      tau(  52) = (  -0.2755148   0.1850686   0.3924250  )
        53        C      tau(  53) = (   0.3633258  -0.2440531   0.4982075  )
        54        C      tau(  54) = (  -0.0524074   0.7069225   0.3319018  )
        55        C      tau(  55) = (   0.0354036   0.6479381   0.4376842  )
        56        C      tau(  56) = (   0.2755148  -0.1850687   0.3924250  )
        57        C      tau(  57) = (   0.6742442   0.2188164   0.3319018  )
        58        C      tau(  58) = (  -0.3633259   0.2440530   0.4982075  )
        59        C      tau(  59) = (   0.1977491   0.2943923   0.3743511  )
        60        C      tau(  60) = (   0.1131693   0.1684770   0.4557582  )
        61        C      tau(  61) = (   0.4240877   0.6313465   0.3743511  )
        62        C      tau(  62) = (  -0.1131694  -0.1684772   0.4557582  )
        63        C      tau(  63) = (   0.5085015   0.0856540   0.0000000  )
        64        C      tau(  64) = (   0.1133354   0.8400850   0.0000000  )
        65        C      tau(  65) = (   0.7348401   0.4226082   0.0000000  )
        66        C      tau(  66) = (  -0.1130032   0.5031308   0.0000000  )
        67        C      tau(  67) = (   0.2425630   0.3611076   0.3297094  )
        68        C      tau(  68) = (  -0.0683555  -0.1017619   0.5003998  )
        69        C      tau(  69) = (   0.5162580   0.1772614   0.0000000  )
        70        C      tau(  70) = (   0.1055789   0.7484776   0.0000000  )
        71        C      tau(  71) = (   0.6529688   0.3807851   0.0000000  )
        72        C      tau(  72) = (  -0.0311319   0.5449538   0.0000000  )
        73        C      tau(  73) = (   0.1144289   0.3044172   0.3948166  )
        74        C      tau(  74) = (   0.1964894   0.1584522   0.4352927  )
        75        C      tau(  75) = (   0.3832988   0.7046882   0.3948166  )
        76        C      tau(  76) = (  -0.0723804  -0.2418188   0.4352927  )
        77        C      tau(  77) = (   0.5042245   0.0425840   0.0747547  )
        78        C      tau(  78) = (  -0.1933061   0.4202854   0.7553546  )
        79        C      tau(  79) = (   0.7730943   0.4428550   0.0747547  )
        80        C      tau(  80) = (  -0.4621760   0.0200144   0.7553546  )
        81        C      tau(  81) = (   0.5074079   0.6213217   0.3948166  )
        82        C      tau(  82) = (  -0.1964895  -0.1584523   0.4352927  )
        83        C      tau(  83) = (   0.2385380   0.2210507   0.3948166  )
        84        C      tau(  84) = (   0.0723803   0.2418187   0.4352927  )
        85        C      tau(  85) = (   0.4621758  -0.0200146   0.7553546  )
        86        C      tau(  86) = (  -0.1512575   0.4828840   0.0747547  )
        87        C      tau(  87) = (   0.1933060  -0.4202856   0.7553546  )
        88        C      tau(  88) = (   0.1176124   0.8831550   0.0747547  )
        89        N      tau(  89) = (   0.1143939   0.8488170   0.1322273  )
        90        N      tau(  90) = (   0.4316049  -0.0359794   0.6978820  )
        91        N      tau(  91) = (   0.5324850   0.3140388   0.4540772  )
        92        N      tau(  92) = (   0.3769338  -0.2531939   0.5631968  )
        93        O      tau(  93) = (   0.4885547   0.3435477   0.3121369  )
        94        O      tau(  94) = (  -0.1776363   0.1193217   0.5179724  )
        95        O      tau(  95) = (   0.2591077  -0.1740478   0.6161179  )
        96        O      tau(  96) = (   0.0518107   0.6369172   0.2139914  )
        97        O      tau(  97) = (   0.1332821   0.5821912   0.3121369  )
        98        O      tau(  98) = (   0.1776362  -0.1193218   0.5179724  )
        99        O      tau(  99) = (   0.5700262   0.2888217   0.2139914  )
       100        O      tau( 100) = (  -0.2591078   0.1740476   0.6161179  )
       101        O      tau( 101) = (   0.4060787   0.3080567   0.1653171  )
       102        O      tau( 102) = (  -0.0951604   0.1548126   0.6647922  )
       103        O      tau( 103) = (   0.4902207   0.4333203   0.1653171  )
       104        O      tau( 104) = (  -0.1793023   0.0295490   0.6647922  )
       105        O      tau( 105) = (   0.0951602  -0.1548128   0.6647922  )
       106        O      tau( 106) = (   0.2157581   0.6176822   0.1653171  )
       107        O      tau( 107) = (   0.1793022  -0.0295492   0.6647922  )
       108        O      tau( 108) = (   0.1316161   0.4924186   0.1653171  )
       109        O      tau( 109) = (   0.3179808   0.3491619   0.3116761  )
       110        O      tau( 110) = (  -0.1079343  -0.0364622   0.5184331  )
       111        O      tau( 111) = (   0.2082893  -0.2488758   0.7608433  )
       112        O      tau( 112) = (   0.1026291   0.7117452   0.0692660  )
       113        O      tau( 113) = (   0.3091612  -0.0987061   0.7608433  )
       114        O      tau( 114) = (   0.0017572   0.5615755   0.0692660  )
       115        O      tau( 115) = (   0.0070623  -0.1137077   0.5184331  )
       116        O      tau( 116) = (   0.2029841   0.4264074   0.3116761  )
       117        O      tau( 117) = (   0.6200797   0.3641635   0.0692660  )
       118        O      tau( 118) = (  -0.3091613   0.0987059   0.7608433  )
       119        O      tau( 119) = (   0.5192078   0.2139938   0.0692660  )
       120        O      tau( 120) = (  -0.2082895   0.2488756   0.7608433  )
       121        O      tau( 121) = (   0.3109184   0.4628695   0.1822007  )
       122        O      tau( 122) = (  -0.0000001  -0.0000001   0.6479086  )
       123        O      tau( 123) = (   0.4621650   0.3612743   0.0000000  )
       124        O      tau( 124) = (   0.1596719   0.5644647   0.0000000  )

     --------------------------------------------
     DFT-D3 Dispersion Correction (3-body terms):
     --------------------------------------------
       Reference C6 values for interpolation: 

         atom   Coordination number   C6
         H          0.912             6.05
         H          0.000            15.18
         C          0.000            98.23
         C          0.987            86.49
         C          1.998            58.72
         C          2.999            51.56
         C          3.984            36.41
         N          0.000            50.54
         N          0.994            44.25
         N          2.014            39.35
         N          2.990            31.16
         O          0.000            31.01
         O          0.993            25.63
         O          1.989            20.74
         Ti         0.000          2723.84
         Ti         1.830           604.00
         Ti         3.868           643.18

       Values used:

         atom   Coordination number  R0_AB[au]  C6      C8
         Ti         7.248            3.557    643.18  76289.64
         Ti         7.248            3.557    643.18  76289.64
         Ti         6.222            3.557    643.18  76289.64
         Ti         6.221            3.557    643.18  76289.64
         Ti         7.252            3.557    643.18  76289.64
         Ti         7.253            3.557    643.18  76289.64
         Ti         6.221            3.557    643.18  76289.64
         Ti         6.223            3.557    643.18  76289.64
         H          1.003            2.062      6.18     74.68
         H          1.004            2.062      6.18     74.67
         H          1.003            2.062      6.18     74.68
         H          1.004            2.062      6.18     74.67
         H          1.005            2.062      6.18     74.67
         H          1.005            2.062      6.18     74.67
         H          1.004            2.062      6.18     74.67
         H          1.004            2.062      6.18     74.67
         H          1.004            2.062      6.18     74.67
         H          1.004            2.062      6.18     74.67
         H          1.003            2.062      6.18     74.68
         H          1.004            2.062      6.18     74.67
         H          1.062            2.062      6.14     74.16
         H          1.062            2.062      6.14     74.16
         H          1.062            2.062      6.14     74.17
         H          1.062            2.062      6.14     74.17
         H          1.004            2.062      6.18     74.67
         H          1.005            2.062      6.18     74.67
         H          1.005            2.062      6.18     74.67
         H          1.004            2.062      6.18     74.67
         H          1.004            2.062      6.18     74.67
         H          1.004            2.062      6.18     74.67
         H          1.089            2.062      6.12     73.98
         H          1.085            2.062      6.12     74.01
         H          1.085            2.062      6.12     74.01
         H          1.087            2.062      6.12     74.00
         H          1.085            2.062      6.12     74.01
         H          1.086            2.062      6.12     74.00
         H          1.085            2.062      6.12     74.01
         H          1.086            2.062      6.12     74.01
         H          0.923            2.062      6.27     75.85
         H          1.015            2.062      6.17     74.56
         H          1.003            2.062      6.18     74.69
         H          0.995            2.062      6.19     74.77
         C          3.354            2.750     47.40   1370.89
         C          3.343            2.750     47.66   1378.38
         C          3.354            2.750     47.40   1370.79
         C          3.343            2.750     47.65   1378.26
         C          3.358            2.750     47.31   1368.39
         C          3.188            2.750     50.19   1451.46
         C          3.358            2.750     47.31   1368.34
         C          3.188            2.750     50.18   1451.43
         C          3.189            2.750     50.18   1451.16
         C          3.165            2.750     50.41   1457.83
         C          3.189            2.750     50.17   1451.12
         C          3.165            2.750     50.40   1457.79
         C          3.329            2.750     47.97   1387.28
         C          3.166            2.750     50.40   1457.65
         C          3.166            2.750     50.40   1457.65
         C          3.329            2.750     47.97   1387.27
         C          3.187            2.750     50.19   1451.60
         C          3.053            2.750     51.13   1478.79
         C          3.127            2.750     50.71   1466.50
         C          3.187            2.750     50.20   1451.81
         C          3.188            2.750     50.18   1451.42
         C          3.360            2.750     47.26   1366.92
         C          3.360            2.750     47.26   1366.93
         C          3.188            2.750     50.18   1451.42
         C          3.211            2.750     49.93   1444.20
         C          3.211            2.750     49.93   1444.19
         C          3.212            2.750     49.92   1443.78
         C          3.223            2.750     49.78   1439.82
         C          3.223            2.750     49.78   1439.84
         C          3.212            2.750     49.92   1443.80
         C          3.170            2.750     50.36   1456.45
         C          3.126            2.750     50.72   1466.84
         C          3.127            2.750     50.71   1466.56
         C          3.169            2.750     50.37   1456.87
         C          3.328            2.750     47.99   1387.89
         C          3.166            2.750     50.40   1457.63
         C          3.166            2.750     50.40   1457.63
         C          3.328            2.750     47.99   1387.91
         C          3.118            2.750     50.77   1468.39
         C          3.164            2.750     50.41   1458.05
         C          3.164            2.750     50.41   1458.04
         C          3.130            2.750     50.69   1465.98
         C          3.189            2.750     50.17   1451.12
         C          3.165            2.750     50.41   1457.81
         C          3.165            2.750     50.40   1457.79
         C          3.189            2.750     50.17   1451.14
         N          3.369            2.478     31.17    687.68
         N          3.370            2.478     31.17    687.68
         N          3.367            2.478     31.17    687.69
         N          3.368            2.478     31.17    687.69
         O          2.052            2.345     20.79    419.61
         O          2.039            2.345     20.80    419.72
         O          2.054            2.345     20.79    419.59
         O          2.041            2.345     20.80    419.70
         O          2.039            2.345     20.80    419.72
         O          2.039            2.345     20.80    419.71
         O          2.041            2.345     20.80    419.70
         O          2.041            2.345     20.80    419.70
         O          2.010            2.345     20.81    420.01
         O          2.008            2.345     20.81    420.03
         O          2.008            2.345     20.81    420.03
         O          2.010            2.345     20.81    420.01
         O          2.010            2.345     20.81    420.01
         O          2.008            2.345     20.81    420.03
         O          2.008            2.345     20.81    420.03
         O          2.010            2.345     20.81    420.01
         O          2.017            2.345     20.81    419.94
         O          2.017            2.345     20.81    419.94
         O          2.018            2.345     20.81    419.92
         O          2.033            2.345     20.80    419.78
         O          2.032            2.345     20.80    419.79
         O          2.018            2.345     20.81    419.92
         O          2.017            2.345     20.81    419.94
         O          2.017            2.345     20.81    419.94
         O          2.018            2.345     20.81    419.92
         O          2.018            2.345     20.81    419.92
         O          2.018            2.345     20.81    419.92
         O          2.018            2.345     20.81    419.92
         O          2.935            2.345     20.74    418.58
         O          2.935            2.345     20.74    418.58
         O          2.940            2.345     20.74    418.58
         O          2.940            2.345     20.74    418.58

         Molecular C6 ( Ry / a.u.^6 ) =    590943.23


   Crystallographic axes

     site n.     atom                  positions (cryst. coord.)
         1        Ti     tau(   1) = (  0.2898400  0.5718700  0.8617100  )
         2        Ti     tau(   2) = (  0.7101600  0.4281300  0.1382900  )
         3        Ti     tau(   3) = (  0.4281300  0.2898400  0.7179700  )
         4        Ti     tau(   4) = (  0.5718700  0.7101600  0.2820300  )
         5        Ti     tau(   5) = (  0.4281300  0.7101600  0.1382900  )
         6        Ti     tau(   6) = (  0.5718700  0.2898400  0.8617100  )
         7        Ti     tau(   7) = (  0.2898400  0.4281300  0.7179700  )
         8        Ti     tau(   8) = (  0.7101600  0.5718700  0.2820300  )
         9        H      tau(   9) = (  0.5407790  0.3814900  0.5442270  )
        10        H      tau(  10) = (  0.1627370  0.0034480  0.5442270  )
        11        H      tau(  11) = (  0.8372630  0.9965520  0.4557730  )
        12        H      tau(  12) = (  0.3814900  0.8372630  0.8407110  )
        13        H      tau(  13) = (  0.6185100  0.1627370  0.1592890  )
        14        H      tau(  14) = (  0.0034480  0.4592210  0.8407110  )
        15        H      tau(  15) = (  0.9965520  0.5407790  0.1592890  )
        16        H      tau(  16) = (  0.4592210  0.0034480  0.8407110  )
        17        H      tau(  17) = (  0.1627370  0.6185100  0.1592890  )
        18        H      tau(  18) = (  0.6185100  0.4592210  0.4557730  )
        19        H      tau(  19) = (  0.3814900  0.5407790  0.5442270  )
        20        H      tau(  20) = (  0.0034480  0.1627370  0.5442270  )
        21        H      tau(  21) = (  0.4261960  0.5738040  0.0000000  )
        22        H      tau(  22) = (  0.5738040  0.4261960  0.0000000  )
        23        H      tau(  23) = (  0.4261960  0.4261960  0.8523920  )
        24        H      tau(  24) = (  0.5738040  0.5738040  0.1476080  )
        25        H      tau(  25) = (  0.3872650  0.0657260  0.4529910  )
        26        H      tau(  26) = (  0.6127350  0.9342740  0.5470090  )
        27        H      tau(  27) = (  0.0657260  0.6127350  0.6784610  )
        28        H      tau(  28) = (  0.9342740  0.3872650  0.3215390  )
        29        H      tau(  29) = (  0.0657260  0.3872650  0.4529910  )
        30        H      tau(  30) = (  0.3872650  0.9342740  0.3215390  )
        31        H      tau(  31) = (  0.5345376  0.9561584  0.1956934  )
        32        H      tau(  32) = (  0.5749142  0.0329715  0.2340536  )
        33        H      tau(  33) = (  0.7916517  0.3626057  0.7708840  )
        34        H      tau(  34) = (  0.7677312  0.3170991  0.7993690  )
        35        H      tau(  35) = (  0.9042145  0.6396123  0.5863292  )
        36        H      tau(  36) = (  0.9173326  0.6645683  0.5393985  )
        37        H      tau(  37) = (  0.6335939  0.0540386  0.7371065  )
        38        H      tau(  38) = (  0.6705867  0.1244143  0.7455270  )
        39        H      tau(  39) = (  0.4051000  0.4051655  0.5769986  )
        40        H      tau(  40) = (  0.4579507  0.6140932  0.4615552  )
        41        H      tau(  41) = (  0.8380881  0.8362607  0.4266685  )
        42        H      tau(  42) = (  1.0195426  0.8498725  0.4781697  )
        43        C      tau(  43) = (  0.8485530  0.5000000  0.3485530  )
        44        C      tau(  44) = (  0.1514470  0.5000000  0.6514470  )
        45        C      tau(  45) = (  0.5000000  0.1514470  0.6514470  )
        46        C      tau(  46) = (  0.5000000  0.8485530  0.3485530  )
        47        C      tau(  47) = (  0.9267120  0.5000000  0.4267120  )
        48        C      tau(  48) = (  0.0732880  0.5000000  0.5732880  )
        49        C      tau(  49) = (  0.5000000  0.0732880  0.5732880  )
        50        C      tau(  50) = (  0.5000000  0.9267120  0.4267120  )
        51        C      tau(  51) = (  0.9635450  0.5637160  0.5272610  )
        52        C      tau(  52) = (  0.0364550  0.4362840  0.4727390  )
        53        C      tau(  53) = (  0.5637160  0.0364550  0.6001710  )
        54        C      tau(  54) = (  0.4362840  0.9635450  0.3998290  )
        55        C      tau(  55) = (  0.5637160  0.9635450  0.5272610  )
        56        C      tau(  56) = (  0.4362840  0.0364550  0.4727390  )
        57        C      tau(  57) = (  0.9635450  0.4362840  0.3998290  )
        58        C      tau(  58) = (  0.0364550  0.5637160  0.6001710  )
        59        C      tau(  59) = (  0.5434910  0.5434910  0.4509660  )
        60        C      tau(  60) = (  0.4565090  0.4565090  0.5490340  )
        61        C      tau(  61) = (  0.9074750  0.9074750  0.4509660  )
        62        C      tau(  62) = (  0.0925250  0.0925250  0.5490340  )
        63        C      tau(  63) = (  0.5434910  0.0925250  0.0000000  )
        64        C      tau(  64) = (  0.4565090  0.9074750  0.0000000  )
        65        C      tau(  65) = (  0.9074750  0.4565090  0.0000000  )
        66        C      tau(  66) = (  0.0925250  0.5434910  0.0000000  )
        67        C      tau(  67) = (  0.5886690  0.5886690  0.3971880  )
        68        C      tau(  68) = (  0.1914810  0.1914810  0.6028120  )
        69        C      tau(  69) = (  0.5886690  0.1914810  0.0000000  )
        70        C      tau(  70) = (  0.4113310  0.8085190  0.0000000  )
        71        C      tau(  71) = (  0.8085190  0.4113310  0.0000000  )
        72        C      tau(  72) = (  0.1914810  0.5886690  0.0000000  )
        73        C      tau(  73) = (  0.4765930  0.5666470  0.4756200  )
        74        C      tau(  74) = (  0.5234070  0.4333530  0.5243800  )
        75        C      tau(  75) = (  0.9089730  0.9990270  0.4756200  )
        76        C      tau(  76) = (  0.0910270  0.0009730  0.5243800  )
        77        C      tau(  77) = (  0.5666470  0.0910270  0.0900540  )
        78        C      tau(  78) = (  0.4333530  0.9089730  0.9099460  )
        79        C      tau(  79) = (  0.9990270  0.5234070  0.0900540  )
        80        C      tau(  80) = (  0.0009730  0.4765930  0.9099460  )
        81        C      tau(  81) = (  0.9990270  0.9089730  0.4756200  )
        82        C      tau(  82) = (  0.0009730  0.0910270  0.5243800  )
        83        C      tau(  83) = (  0.5666470  0.4765930  0.4756200  )
        84        C      tau(  84) = (  0.4333530  0.5234070  0.5243800  )
        85        C      tau(  85) = (  0.9089730  0.4333530  0.9099460  )
        86        C      tau(  86) = (  0.0910270  0.5666470  0.0900540  )
        87        C      tau(  87) = (  0.4765930  0.0009730  0.9099460  )
        88        C      tau(  88) = (  0.5234070  0.9990270  0.0900540  )
        89        N      tau(  89) = (  0.5407790  0.9965520  0.1592890  )
        90        N      tau(  90) = (  0.8372630  0.3814900  0.8407110  )
        91        N      tau(  91) = (  0.9342740  0.6127350  0.5470090  )
        92        N      tau(  92) = (  0.6127350  0.0657260  0.6784610  )
        93        O      tau(  93) = (  0.8169030  0.5591160  0.3760190  )
        94        O      tau(  94) = (  0.1830970  0.4408840  0.6239810  )
        95        O      tau(  95) = (  0.5591160  0.1830970  0.7422130  )
        96        O      tau(  96) = (  0.4408840  0.8169030  0.2577870  )
        97        O      tau(  97) = (  0.5591160  0.8169030  0.3760190  )
        98        O      tau(  98) = (  0.4408840  0.1830970  0.6239810  )
        99        O      tau(  99) = (  0.8169030  0.4408840  0.2577870  )
       100        O      tau( 100) = (  0.1830970  0.5591160  0.7422130  )
       101        O      tau( 101) = (  0.6314950  0.4323440  0.1991510  )
       102        O      tau( 102) = (  0.3685050  0.5676560  0.8008490  )
       103        O      tau( 103) = (  0.7668070  0.5676560  0.1991510  )
       104        O      tau( 104) = (  0.2331930  0.4323440  0.8008490  )
       105        O      tau( 105) = (  0.4323440  0.2331930  0.8008490  )
       106        O      tau( 106) = (  0.5676560  0.7668070  0.1991510  )
       107        O      tau( 107) = (  0.5676560  0.3685050  0.8008490  )
       108        O      tau( 108) = (  0.4323440  0.6314950  0.1991510  )
       109        O      tau( 109) = (  0.6483450  0.5649030  0.3754640  )
       110        O      tau( 110) = (  0.1894390  0.2728810  0.6245360  )
       111        O      tau( 111) = (  0.5649030  0.1894390  0.9165580  )
       112        O      tau( 112) = (  0.4350970  0.8105610  0.0834420  )
       113        O      tau( 113) = (  0.7271190  0.3516550  0.9165580  )
       114        O      tau( 114) = (  0.2728810  0.6483450  0.0834420  )
       115        O      tau( 115) = (  0.2728810  0.1894390  0.6245360  )
       116        O      tau( 116) = (  0.5649030  0.6483450  0.3754640  )
       117        O      tau( 117) = (  0.8105610  0.4350970  0.0834420  )
       118        O      tau( 118) = (  0.1894390  0.5649030  0.9165580  )
       119        O      tau( 119) = (  0.6483450  0.2728810  0.0834420  )
       120        O      tau( 120) = (  0.3516550  0.7271190  0.9165580  )
       121        O      tau( 121) = (  0.6097450  0.6097450  0.2194900  )
       122        O      tau( 122) = (  0.3902550  0.3902550  0.7805100  )
       123        O      tau( 123) = (  0.6097450  0.3902550  0.0000000  )
       124        O      tau( 124) = (  0.3902550  0.6097450  0.0000000  )

     number of k points=     1
                       cart. coord. in units 2pi/alat
        k(    1) = (   0.0000000   0.0000000   0.0000000), wk =   2.0000000

                       cryst. coord.
        k(    1) = (   0.0000000   0.0000000   0.0000000), wk =   2.0000000

     Dense  grid:  1762151 G-vectors     FFT dimensions: ( 180, 180, 180)

     Smooth grid:   761105 G-vectors     FFT dimensions: ( 125, 125, 125)

     Dynamical RAM for                 wfc:      12.73 MB

     Dynamical RAM for     wfc (w. buffer):      12.73 MB

     Dynamical RAM for           str. fact:       4.48 MB

     Dynamical RAM for           local pot:       0.00 MB

     Dynamical RAM for          nlocal pot:      42.00 MB

     Dynamical RAM for                qrad:      13.43 MB

     Dynamical RAM for          rho,v,vnew:       7.14 MB

     Dynamical RAM for               rhoin:       2.38 MB

     Dynamical RAM for            rho*nmix:      14.34 MB

     Dynamical RAM for           G-vectors:       3.55 MB

     Dynamical RAM for          h,s,v(r/c):       1.40 MB

     Dynamical RAM for          <psi|beta>:       3.48 MB

     Dynamical RAM for                 psi:      25.45 MB

     Dynamical RAM for                hpsi:      25.45 MB

     Dynamical RAM for                spsi:      25.45 MB

     Dynamical RAM for      wfcinit/wfcrot:      47.25 MB

     Dynamical RAM for           addusdens:     207.93 MB

     Dynamical RAM for          addusforce:     289.23 MB

     Dynamical RAM for         addusstress:     180.15 MB

     Estimated static dynamical RAM per process >      98.51 MB

     Estimated max dynamical RAM per process >     402.07 MB

     Estimated total dynamical RAM >      11.78 GB

     Check: negative core charge=   -0.000003

     Initial potential from superposition of free atoms

     starting charge     517.9973, renormalised to     526.0000

     negative rho (up, down):  9.834E-03 0.000E+00
     Starting wfcs are  442 randomized atomic wfcs
[ga01:3948407] 29 more processes have sent help message help-mpi-btl-openib.txt / error in device init
[ga01:3948407] Set MCA parameter "orte_base_help_aggregate" to 0 to see all help / error messages
     Checking if some PAW data can be deallocated... 
       PAW data deallocated on   18 nodes for type:  3
       PAW data deallocated on   22 nodes for type:  5

     total cpu time spent up to now is        6.9 secs

     Self-consistent Calculation

     iteration #  1     ecut=    40.00 Ry     beta= 0.40
     Davidson diagonalization with overlap

---- Real-time Memory Report at c_bands before calling an iterative solver
           394 MiB given to the printing process from OS
             0 MiB allocation reported by mallinfo(arena+hblkhd)
        174854 MiB available memory on the node where the printing process lives
------------------
     ethr =  1.00E-02,  avg # of iterations =  2.0

     negative rho (up, down):  3.057E-03 0.000E+00

     total cpu time spent up to now is       18.9 secs

     total energy              =   -3141.11403451 Ry
     estimated scf accuracy    <     208.46529664 Ry

     iteration #  2     ecut=    40.00 Ry     beta= 0.40
     Davidson diagonalization with overlap

---- Real-time Memory Report at c_bands before calling an iterative solver
           494 MiB given to the printing process from OS
             0 MiB allocation reported by mallinfo(arena+hblkhd)
        174941 MiB available memory on the node where the printing process lives
------------------
     ethr =  1.00E-02,  avg # of iterations = 11.0

     negative rho (up, down):  4.651E-03 0.000E+00

     total cpu time spent up to now is       50.4 secs

     total energy              =   -3071.05237233 Ry
     estimated scf accuracy    <    2302.58027047 Ry

     iteration #  3     ecut=    40.00 Ry     beta= 0.40
     Davidson diagonalization with overlap

---- Real-time Memory Report at c_bands before calling an iterative solver
           498 MiB given to the printing process from OS
             0 MiB allocation reported by mallinfo(arena+hblkhd)
        174884 MiB available memory on the node where the printing process lives
------------------
     ethr =  1.00E-02,  avg # of iterations = 14.0

     negative rho (up, down):  5.315E-03 0.000E+00

     total cpu time spent up to now is       80.2 secs

     total energy              =   -3257.85717487 Ry
     estimated scf accuracy    <      58.44201118 Ry

     iteration #  4     ecut=    40.00 Ry     beta= 0.40
     Davidson diagonalization with overlap

---- Real-time Memory Report at c_bands before calling an iterative solver
           500 MiB given to the printing process from OS
             0 MiB allocation reported by mallinfo(arena+hblkhd)
        174827 MiB available memory on the node where the printing process lives
------------------
     ethr =  1.00E-02,  avg # of iterations =  6.0

     negative rho (up, down):  6.229E-03 0.000E+00

     total cpu time spent up to now is       90.3 secs

     total energy              =   -3256.50463992 Ry
     estimated scf accuracy    <      23.17698319 Ry

     iteration #  5     ecut=    40.00 Ry     beta= 0.40
     Davidson diagonalization with overlap

---- Real-time Memory Report at c_bands before calling an iterative solver
           501 MiB given to the printing process from OS
             0 MiB allocation reported by mallinfo(arena+hblkhd)
        174766 MiB available memory on the node where the printing process lives
------------------
     ethr =  4.41E-03,  avg # of iterations =  6.0

     negative rho (up, down):  6.772E-03 0.000E+00

     total cpu time spent up to now is      100.3 secs

     total energy              =   -3258.00756247 Ry
     estimated scf accuracy    <      10.47189195 Ry

     iteration #  6     ecut=    40.00 Ry     beta= 0.40
     Davidson diagonalization with overlap

---- Real-time Memory Report at c_bands before calling an iterative solver
           502 MiB given to the printing process from OS
             0 MiB allocation reported by mallinfo(arena+hblkhd)
        174709 MiB available memory on the node where the printing process lives
------------------
     ethr =  1.99E-03,  avg # of iterations =  4.0

     negative rho (up, down):  8.610E-03 0.000E+00

     total cpu time spent up to now is      109.9 secs

     total energy              =   -3255.98495497 Ry
     estimated scf accuracy    <       6.43461896 Ry

     iteration #  7     ecut=    40.00 Ry     beta= 0.40
     Davidson diagonalization with overlap

---- Real-time Memory Report at c_bands before calling an iterative solver
           503 MiB given to the printing process from OS
             0 MiB allocation reported by mallinfo(arena+hblkhd)
        174636 MiB available memory on the node where the printing process lives
------------------
     ethr =  1.22E-03,  avg # of iterations = 17.0

     negative rho (up, down):  8.886E-03 0.000E+00

     total cpu time spent up to now is      122.9 secs

     total energy              =   -3257.18832231 Ry
     estimated scf accuracy    <       1.55664758 Ry

     iteration #  8     ecut=    40.00 Ry     beta= 0.40
     Davidson diagonalization with overlap

---- Real-time Memory Report at c_bands before calling an iterative solver
           505 MiB given to the printing process from OS
             0 MiB allocation reported by mallinfo(arena+hblkhd)
        174585 MiB available memory on the node where the printing process lives
------------------
     c_bands:  1 eigenvalues not converged
     ethr =  2.96E-04,  avg # of iterations = 20.0

     negative rho (up, down):  8.966E-03 0.000E+00

     total cpu time spent up to now is      134.5 secs

     total energy              =   -3257.19979222 Ry
     estimated scf accuracy    <       0.79760697 Ry

     iteration #  9     ecut=    40.00 Ry     beta= 0.40
     Davidson diagonalization with overlap

---- Real-time Memory Report at c_bands before calling an iterative solver
           506 MiB given to the printing process from OS
             0 MiB allocation reported by mallinfo(arena+hblkhd)
        174518 MiB available memory on the node where the printing process lives
------------------
     c_bands:  1 eigenvalues not converged
     ethr =  1.52E-04,  avg # of iterations = 20.0

     negative rho (up, down):  8.978E-03 0.000E+00

     total cpu time spent up to now is      145.9 secs

     total energy              =   -3257.14133289 Ry
     estimated scf accuracy    <       0.86118488 Ry

     iteration # 10     ecut=    40.00 Ry     beta= 0.40
     Davidson diagonalization with overlap

---- Real-time Memory Report at c_bands before calling an iterative solver
           508 MiB given to the printing process from OS
             0 MiB allocation reported by mallinfo(arena+hblkhd)
        174462 MiB available memory on the node where the printing process lives
------------------
     c_bands:  1 eigenvalues not converged
     ethr =  1.52E-04,  avg # of iterations = 20.0

     negative rho (up, down):  8.890E-03 0.000E+00

     total cpu time spent up to now is      156.8 secs

     total energy              =   -3257.19803938 Ry
     estimated scf accuracy    <       1.34455399 Ry

     iteration # 11     ecut=    40.00 Ry     beta= 0.40
     Davidson diagonalization with overlap

---- Real-time Memory Report at c_bands before calling an iterative solver
           509 MiB given to the printing process from OS
             0 MiB allocation reported by mallinfo(arena+hblkhd)
        174435 MiB available memory on the node where the printing process lives
------------------
     c_bands:  1 eigenvalues not converged
     ethr =  1.52E-04,  avg # of iterations = 20.0

     negative rho (up, down):  9.072E-03 0.000E+00

     total cpu time spent up to now is      167.6 secs

     total energy              =   -3257.25993727 Ry
     estimated scf accuracy    <       0.71878156 Ry

     iteration # 12     ecut=    40.00 Ry     beta= 0.40
     Davidson diagonalization with overlap

---- Real-time Memory Report at c_bands before calling an iterative solver
           509 MiB given to the printing process from OS
             0 MiB allocation reported by mallinfo(arena+hblkhd)
        174434 MiB available memory on the node where the printing process lives
------------------
     c_bands:  1 eigenvalues not converged
     ethr =  1.37E-04,  avg # of iterations = 20.0

     negative rho (up, down):  9.610E-03 0.000E+00

     total cpu time spent up to now is      178.3 secs

     total energy              =   -3257.19698367 Ry
     estimated scf accuracy    <       0.48347026 Ry

     iteration # 13     ecut=    40.00 Ry     beta= 0.40
     Davidson diagonalization with overlap

---- Real-time Memory Report at c_bands before calling an iterative solver
           509 MiB given to the printing process from OS
             0 MiB allocation reported by mallinfo(arena+hblkhd)
        174434 MiB available memory on the node where the printing process lives
------------------
     c_bands:  1 eigenvalues not converged
     ethr =  9.19E-05,  avg # of iterations = 20.0

     negative rho (up, down):  9.818E-03 0.000E+00

     total cpu time spent up to now is      189.0 secs

     total energy              =   -3257.20995861 Ry
     estimated scf accuracy    <       0.34177048 Ry

     iteration # 14     ecut=    40.00 Ry     beta= 0.40
     Davidson diagonalization with overlap

---- Real-time Memory Report at c_bands before calling an iterative solver
           509 MiB given to the printing process from OS
             0 MiB allocation reported by mallinfo(arena+hblkhd)
        174434 MiB available memory on the node where the printing process lives
------------------
     c_bands:  1 eigenvalues not converged
     ethr =  6.50E-05,  avg # of iterations = 20.0

     negative rho (up, down):  9.961E-03 0.000E+00

     total cpu time spent up to now is      199.9 secs

     total energy              =   -3257.23720917 Ry
     estimated scf accuracy    <       0.27932233 Ry

     iteration # 15     ecut=    40.00 Ry     beta= 0.40
     Davidson diagonalization with overlap

---- Real-time Memory Report at c_bands before calling an iterative solver
           509 MiB given to the printing process from OS
             0 MiB allocation reported by mallinfo(arena+hblkhd)
        174435 MiB available memory on the node where the printing process lives
------------------
     c_bands:  1 eigenvalues not converged
     ethr =  5.31E-05,  avg # of iterations = 20.0

     negative rho (up, down):  9.978E-03 0.000E+00

     total cpu time spent up to now is      210.2 secs

     total energy              =   -3257.24103188 Ry
     estimated scf accuracy    <       0.09196035 Ry

     iteration # 16     ecut=    40.00 Ry     beta= 0.40
     Davidson diagonalization with overlap

---- Real-time Memory Report at c_bands before calling an iterative solver
           509 MiB given to the printing process from OS
             0 MiB allocation reported by mallinfo(arena+hblkhd)
        174434 MiB available memory on the node where the printing process lives
------------------
     c_bands:  1 eigenvalues not converged
     ethr =  1.75E-05,  avg # of iterations = 20.0

     negative rho (up, down):  1.008E-02 0.000E+00

     total cpu time spent up to now is      220.6 secs

     total energy              =   -3257.24414927 Ry
     estimated scf accuracy    <       0.09870410 Ry

     iteration # 17     ecut=    40.00 Ry     beta= 0.40
     Davidson diagonalization with overlap

---- Real-time Memory Report at c_bands before calling an iterative solver
           509 MiB given to the printing process from OS
             0 MiB allocation reported by mallinfo(arena+hblkhd)
        174433 MiB available memory on the node where the printing process lives
------------------
     ethr =  1.75E-05,  avg # of iterations = 19.0

     negative rho (up, down):  1.015E-02 0.000E+00

     total cpu time spent up to now is      230.8 secs

     total energy              =   -3257.24396168 Ry
     estimated scf accuracy    <       0.10976439 Ry

     iteration # 18     ecut=    40.00 Ry     beta= 0.40
     Davidson diagonalization with overlap

---- Real-time Memory Report at c_bands before calling an iterative solver
           509 MiB given to the printing process from OS
             0 MiB allocation reported by mallinfo(arena+hblkhd)
        174432 MiB available memory on the node where the printing process lives
------------------
     c_bands:  1 eigenvalues not converged
     ethr =  1.75E-05,  avg # of iterations = 20.0

     negative rho (up, down):  1.022E-02 0.000E+00

     total cpu time spent up to now is      241.0 secs

     total energy              =   -3257.24713854 Ry
     estimated scf accuracy    <       0.03081471 Ry

     iteration # 19     ecut=    40.00 Ry     beta= 0.40
     Davidson diagonalization with overlap

---- Real-time Memory Report at c_bands before calling an iterative solver
           509 MiB given to the printing process from OS
             0 MiB allocation reported by mallinfo(arena+hblkhd)
        174432 MiB available memory on the node where the printing process lives
------------------
     c_bands:  1 eigenvalues not converged
     ethr =  5.86E-06,  avg # of iterations = 20.0

     negative rho (up, down):  1.023E-02 0.000E+00

     total cpu time spent up to now is      251.6 secs

     total energy              =   -3257.24741724 Ry
     estimated scf accuracy    <       0.04149851 Ry

     iteration # 20     ecut=    40.00 Ry     beta= 0.40
     Davidson diagonalization with overlap

---- Real-time Memory Report at c_bands before calling an iterative solver
           509 MiB given to the printing process from OS
             0 MiB allocation reported by mallinfo(arena+hblkhd)
        174432 MiB available memory on the node where the printing process lives
------------------
     c_bands:  1 eigenvalues not converged
     ethr =  5.86E-06,  avg # of iterations = 20.0

     negative rho (up, down):  1.024E-02 0.000E+00

     total cpu time spent up to now is      261.8 secs

     total energy              =   -3257.25018535 Ry
     estimated scf accuracy    <       0.02262394 Ry

     iteration # 21     ecut=    40.00 Ry     beta= 0.40
     Davidson diagonalization with overlap

---- Real-time Memory Report at c_bands before calling an iterative solver
           509 MiB given to the printing process from OS
             0 MiB allocation reported by mallinfo(arena+hblkhd)
        174432 MiB available memory on the node where the printing process lives
------------------
     c_bands:  1 eigenvalues not converged
     ethr =  4.30E-06,  avg # of iterations = 20.0

     negative rho (up, down):  1.027E-02 0.000E+00

     total cpu time spent up to now is      272.0 secs

     total energy              =   -3257.25043567 Ry
     estimated scf accuracy    <       0.03649013 Ry

     iteration # 22     ecut=    40.00 Ry     beta= 0.40
     Davidson diagonalization with overlap

---- Real-time Memory Report at c_bands before calling an iterative solver
           509 MiB given to the printing process from OS
             0 MiB allocation reported by mallinfo(arena+hblkhd)
        174433 MiB available memory on the node where the printing process lives
------------------
     c_bands:  1 eigenvalues not converged
     ethr =  4.30E-06,  avg # of iterations = 20.0

     negative rho (up, down):  1.029E-02 0.000E+00

     total cpu time spent up to now is      282.3 secs

     total energy              =   -3257.25009794 Ry
     estimated scf accuracy    <       0.02016583 Ry

     iteration # 23     ecut=    40.00 Ry     beta= 0.40
     Davidson diagonalization with overlap

---- Real-time Memory Report at c_bands before calling an iterative solver
           509 MiB given to the printing process from OS
             0 MiB allocation reported by mallinfo(arena+hblkhd)
        174433 MiB available memory on the node where the printing process lives
------------------
     c_bands:  1 eigenvalues not converged
     ethr =  3.83E-06,  avg # of iterations = 20.0

     negative rho (up, down):  1.033E-02 0.000E+00

     total cpu time spent up to now is      292.5 secs

     total energy              =   -3257.25052899 Ry
     estimated scf accuracy    <       0.01483893 Ry

     iteration # 24     ecut=    40.00 Ry     beta= 0.40
     Davidson diagonalization with overlap

---- Real-time Memory Report at c_bands before calling an iterative solver
           511 MiB given to the printing process from OS
             0 MiB allocation reported by mallinfo(arena+hblkhd)
        174430 MiB available memory on the node where the printing process lives
------------------
     c_bands:  1 eigenvalues not converged
     ethr =  2.82E-06,  avg # of iterations = 20.0

     negative rho (up, down):  1.041E-02 0.000E+00

     total cpu time spent up to now is      303.2 secs

     total energy              =   -3257.25192069 Ry
     estimated scf accuracy    <       0.02236670 Ry

     iteration # 25     ecut=    40.00 Ry     beta= 0.40
     Davidson diagonalization with overlap

---- Real-time Memory Report at c_bands before calling an iterative solver
           513 MiB given to the printing process from OS
             0 MiB allocation reported by mallinfo(arena+hblkhd)
        174431 MiB available memory on the node where the printing process lives
------------------
     c_bands:  1 eigenvalues not converged
     ethr =  2.82E-06,  avg # of iterations = 20.0

     negative rho (up, down):  1.045E-02 0.000E+00

     total cpu time spent up to now is      313.8 secs

     total energy              =   -3257.25185808 Ry
     estimated scf accuracy    <       0.03289178 Ry

     iteration # 26     ecut=    40.00 Ry     beta= 0.40
     Davidson diagonalization with overlap

---- Real-time Memory Report at c_bands before calling an iterative solver
           513 MiB given to the printing process from OS
             0 MiB allocation reported by mallinfo(arena+hblkhd)
        174429 MiB available memory on the node where the printing process lives
------------------
     c_bands:  1 eigenvalues not converged
     ethr =  2.82E-06,  avg # of iterations = 20.0

     negative rho (up, down):  1.057E-02 0.000E+00

     total cpu time spent up to now is      324.3 secs

     total energy              =   -3257.25408792 Ry
     estimated scf accuracy    <       0.04851404 Ry

     iteration # 27     ecut=    40.00 Ry     beta= 0.40
     Davidson diagonalization with overlap

---- Real-time Memory Report at c_bands before calling an iterative solver
           513 MiB given to the printing process from OS
             0 MiB allocation reported by mallinfo(arena+hblkhd)
        174442 MiB available memory on the node where the printing process lives
------------------
     c_bands:  1 eigenvalues not converged
     ethr =  2.82E-06,  avg # of iterations = 20.0

     negative rho (up, down):  1.058E-02 0.000E+00

     total cpu time spent up to now is      334.6 secs

     total energy              =   -3257.25283924 Ry
     estimated scf accuracy    <       0.10305530 Ry

     iteration # 28     ecut=    40.00 Ry     beta= 0.40
     Davidson diagonalization with overlap

---- Real-time Memory Report at c_bands before calling an iterative solver
           513 MiB given to the printing process from OS
             0 MiB allocation reported by mallinfo(arena+hblkhd)
        174432 MiB available memory on the node where the printing process lives
------------------
     c_bands:  1 eigenvalues not converged
     ethr =  2.82E-06,  avg # of iterations = 20.0

     negative rho (up, down):  1.053E-02 0.000E+00

     total cpu time spent up to now is      345.4 secs

     total energy              =   -3257.24532579 Ry
     estimated scf accuracy    <       0.12311159 Ry

     iteration # 29     ecut=    40.00 Ry     beta= 0.40
     Davidson diagonalization with overlap

---- Real-time Memory Report at c_bands before calling an iterative solver
           513 MiB given to the printing process from OS
             0 MiB allocation reported by mallinfo(arena+hblkhd)
        174438 MiB available memory on the node where the printing process lives
------------------
     c_bands:  1 eigenvalues not converged
     ethr =  2.82E-06,  avg # of iterations = 20.0

     negative rho (up, down):  1.046E-02 0.000E+00

     total cpu time spent up to now is      356.1 secs

     total energy              =   -3257.24484628 Ry
     estimated scf accuracy    <       0.06635950 Ry

     iteration # 30     ecut=    40.00 Ry     beta= 0.40
     Davidson diagonalization with overlap

---- Real-time Memory Report at c_bands before calling an iterative solver
           513 MiB given to the printing process from OS
             0 MiB allocation reported by mallinfo(arena+hblkhd)
        174432 MiB available memory on the node where the printing process lives
------------------
     c_bands:  1 eigenvalues not converged
     ethr =  2.82E-06,  avg # of iterations = 20.0

     negative rho (up, down):  1.046E-02 0.000E+00

     total cpu time spent up to now is      368.1 secs

     total energy              =   -3257.24614310 Ry
     estimated scf accuracy    <       0.35019143 Ry

     iteration # 31     ecut=    40.00 Ry     beta= 0.40
     Davidson diagonalization with overlap

---- Real-time Memory Report at c_bands before calling an iterative solver
           513 MiB given to the printing process from OS
             0 MiB allocation reported by mallinfo(arena+hblkhd)
        174432 MiB available memory on the node where the printing process lives
------------------
     c_bands:  1 eigenvalues not converged
     ethr =  2.82E-06,  avg # of iterations = 20.0

     negative rho (up, down):  1.048E-02 0.000E+00

     total cpu time spent up to now is      378.7 secs

     total energy              =   -3257.24856532 Ry
     estimated scf accuracy    <       0.10216011 Ry

     iteration # 32     ecut=    40.00 Ry     beta= 0.40
     Davidson diagonalization with overlap

---- Real-time Memory Report at c_bands before calling an iterative solver
           513 MiB given to the printing process from OS
             0 MiB allocation reported by mallinfo(arena+hblkhd)
        174432 MiB available memory on the node where the printing process lives
------------------
     c_bands:  1 eigenvalues not converged
     ethr =  2.82E-06,  avg # of iterations = 20.0

     negative rho (up, down):  1.055E-02 0.000E+00

     total cpu time spent up to now is      389.4 secs

     total energy              =   -3257.24395920 Ry
     estimated scf accuracy    <       0.06920301 Ry

     iteration # 33     ecut=    40.00 Ry     beta= 0.40
     Davidson diagonalization with overlap

---- Real-time Memory Report at c_bands before calling an iterative solver
           513 MiB given to the printing process from OS
             0 MiB allocation reported by mallinfo(arena+hblkhd)
        174432 MiB available memory on the node where the printing process lives
------------------
     c_bands:  1 eigenvalues not converged
     ethr =  2.82E-06,  avg # of iterations = 20.0

     negative rho (up, down):  1.056E-02 0.000E+00

     total cpu time spent up to now is      402.8 secs

     total energy              =   -3257.24127743 Ry
     estimated scf accuracy    <       0.66425630 Ry

     iteration # 34     ecut=    40.00 Ry     beta= 0.40
     Davidson diagonalization with overlap

---- Real-time Memory Report at c_bands before calling an iterative solver
           520 MiB given to the printing process from OS
             0 MiB allocation reported by mallinfo(arena+hblkhd)
        174420 MiB available memory on the node where the printing process lives
------------------
     ethr =  2.82E-06,  avg # of iterations = 19.0

     negative rho (up, down):  1.057E-02 0.000E+00

     total cpu time spent up to now is      416.4 secs

     total energy              =   -3257.25061009 Ry
     estimated scf accuracy    <       0.15754111 Ry

     iteration # 35     ecut=    40.00 Ry     beta= 0.40
     Davidson diagonalization with overlap

---- Real-time Memory Report at c_bands before calling an iterative solver
           520 MiB given to the printing process from OS
             0 MiB allocation reported by mallinfo(arena+hblkhd)
        174426 MiB available memory on the node where the printing process lives
------------------
     ethr =  2.82E-06,  avg # of iterations = 19.0

     negative rho (up, down):  1.061E-02 0.000E+00

     total cpu time spent up to now is      426.6 secs

     total energy              =   -3257.25108299 Ry
     estimated scf accuracy    <       0.06234358 Ry

     iteration # 36     ecut=    40.00 Ry     beta= 0.40
     Davidson diagonalization with overlap

---- Real-time Memory Report at c_bands before calling an iterative solver
           520 MiB given to the printing process from OS
             0 MiB allocation reported by mallinfo(arena+hblkhd)
        174419 MiB available memory on the node where the printing process lives
------------------
     ethr =  2.82E-06,  avg # of iterations =  1.0

     negative rho (up, down):  1.064E-02 0.000E+00

     total cpu time spent up to now is      435.5 secs

     total energy              =   -3257.25028511 Ry
     estimated scf accuracy    <       0.06051397 Ry

     iteration # 37     ecut=    40.00 Ry     beta= 0.40
     Davidson diagonalization with overlap

---- Real-time Memory Report at c_bands before calling an iterative solver
           520 MiB given to the printing process from OS
             0 MiB allocation reported by mallinfo(arena+hblkhd)
        174426 MiB available memory on the node where the printing process lives
------------------
     c_bands:  1 eigenvalues not converged
     ethr =  2.82E-06,  avg # of iterations = 20.0

     negative rho (up, down):  1.061E-02 0.000E+00

     total cpu time spent up to now is      446.1 secs

     total energy              =   -3257.24862384 Ry
     estimated scf accuracy    <       0.02199258 Ry

     iteration # 38     ecut=    40.00 Ry     beta= 0.40
     Davidson diagonalization with overlap

---- Real-time Memory Report at c_bands before calling an iterative solver
           520 MiB given to the printing process from OS
             0 MiB allocation reported by mallinfo(arena+hblkhd)
        174420 MiB available memory on the node where the printing process lives
------------------
     c_bands:  1 eigenvalues not converged
     ethr =  2.82E-06,  avg # of iterations = 20.0

     negative rho (up, down):  1.059E-02 0.000E+00

     total cpu time spent up to now is      456.4 secs

     total energy              =   -3257.24786503 Ry
     estimated scf accuracy    <       0.02078028 Ry

     iteration # 39     ecut=    40.00 Ry     beta= 0.40
     Davidson diagonalization with overlap

---- Real-time Memory Report at c_bands before calling an iterative solver
           520 MiB given to the printing process from OS
             0 MiB allocation reported by mallinfo(arena+hblkhd)
        174419 MiB available memory on the node where the printing process lives
------------------
     c_bands:  1 eigenvalues not converged
     ethr =  2.82E-06,  avg # of iterations = 20.0

     negative rho (up, down):  1.061E-02 0.000E+00

     total cpu time spent up to now is      467.2 secs

     total energy              =   -3257.24814691 Ry
     estimated scf accuracy    <       0.04099250 Ry

     iteration # 40     ecut=    40.00 Ry     beta= 0.40
     Davidson diagonalization with overlap

---- Real-time Memory Report at c_bands before calling an iterative solver
           520 MiB given to the printing process from OS
             0 MiB allocation reported by mallinfo(arena+hblkhd)
        174423 MiB available memory on the node where the printing process lives
------------------
     c_bands:  1 eigenvalues not converged
     ethr =  2.82E-06,  avg # of iterations = 20.0

     negative rho (up, down):  1.064E-02 0.000E+00

     total cpu time spent up to now is      477.4 secs

     total energy              =   -3257.24955547 Ry
     estimated scf accuracy    <       0.03234355 Ry

     iteration # 41     ecut=    40.00 Ry     beta= 0.40
     Davidson diagonalization with overlap

---- Real-time Memory Report at c_bands before calling an iterative solver
           520 MiB given to the printing process from OS
             0 MiB allocation reported by mallinfo(arena+hblkhd)
        174416 MiB available memory on the node where the printing process lives
------------------
     c_bands:  1 eigenvalues not converged
     ethr =  2.82E-06,  avg # of iterations = 20.0

     negative rho (up, down):  1.070E-02 0.000E+00

     total cpu time spent up to now is      488.0 secs

     total energy              =   -3257.25118571 Ry
     estimated scf accuracy    <       0.18060300 Ry

     iteration # 42     ecut=    40.00 Ry     beta= 0.40
     Davidson diagonalization with overlap

---- Real-time Memory Report at c_bands before calling an iterative solver
           522 MiB given to the printing process from OS
             0 MiB allocation reported by mallinfo(arena+hblkhd)
        174417 MiB available memory on the node where the printing process lives
------------------
     c_bands:  1 eigenvalues not converged
     ethr =  2.82E-06,  avg # of iterations = 20.0

     negative rho (up, down):  1.076E-02 0.000E+00

     total cpu time spent up to now is      498.7 secs

     total energy              =   -3257.25104024 Ry
     estimated scf accuracy    <       0.11473531 Ry

     iteration # 43     ecut=    40.00 Ry     beta= 0.40
     Davidson diagonalization with overlap

---- Real-time Memory Report at c_bands before calling an iterative solver
           522 MiB given to the printing process from OS
             0 MiB allocation reported by mallinfo(arena+hblkhd)
        174417 MiB available memory on the node where the printing process lives
------------------
     c_bands:  1 eigenvalues not converged
     ethr =  2.82E-06,  avg # of iterations = 20.0

     negative rho (up, down):  1.080E-02 0.000E+00

     total cpu time spent up to now is      509.3 secs

     total energy              =   -3257.25171640 Ry
     estimated scf accuracy    <       0.17061026 Ry

     iteration # 44     ecut=    40.00 Ry     beta= 0.40
     Davidson diagonalization with overlap

---- Real-time Memory Report at c_bands before calling an iterative solver
           527 MiB given to the printing process from OS
             0 MiB allocation reported by mallinfo(arena+hblkhd)
        174419 MiB available memory on the node where the printing process lives
------------------
     ethr =  2.82E-06,  avg # of iterations = 20.0

     negative rho (up, down):  1.083E-02 0.000E+00

     total cpu time spent up to now is      519.9 secs

     total energy              =   -3257.25266139 Ry
     estimated scf accuracy    <       0.13473250 Ry

     iteration # 45     ecut=    40.00 Ry     beta= 0.40
     Davidson diagonalization with overlap

---- Real-time Memory Report at c_bands before calling an iterative solver
           528 MiB given to the printing process from OS
             0 MiB allocation reported by mallinfo(arena+hblkhd)
        174411 MiB available memory on the node where the printing process lives
------------------
     ethr =  2.82E-06,  avg # of iterations =  1.0

     negative rho (up, down):  1.097E-02 0.000E+00

     total cpu time spent up to now is      528.3 secs

     total energy              =   -3257.25745079 Ry
     estimated scf accuracy    <       0.13377942 Ry

     iteration # 46     ecut=    40.00 Ry     beta= 0.40
     Davidson diagonalization with overlap

---- Real-time Memory Report at c_bands before calling an iterative solver
           528 MiB given to the printing process from OS
             0 MiB allocation reported by mallinfo(arena+hblkhd)
        174418 MiB available memory on the node where the printing process lives
------------------
     c_bands:  1 eigenvalues not converged
     ethr =  2.82E-06,  avg # of iterations = 20.0

     negative rho (up, down):  1.093E-02 0.000E+00

     total cpu time spent up to now is      540.3 secs

     total energy              =   -3257.25818689 Ry
     estimated scf accuracy    <       0.18118050 Ry

     iteration # 47     ecut=    40.00 Ry     beta= 0.40
     Davidson diagonalization with overlap

---- Real-time Memory Report at c_bands before calling an iterative solver
           528 MiB given to the printing process from OS
             0 MiB allocation reported by mallinfo(arena+hblkhd)
        174411 MiB available memory on the node where the printing process lives
------------------
     c_bands:  1 eigenvalues not converged
     ethr =  2.82E-06,  avg # of iterations = 20.0

     negative rho (up, down):  1.096E-02 0.000E+00

     total cpu time spent up to now is      550.7 secs

     total energy              =   -3257.25311126 Ry
     estimated scf accuracy    <       0.12816529 Ry

     iteration # 48     ecut=    40.00 Ry     beta= 0.40
     Davidson diagonalization with overlap

---- Real-time Memory Report at c_bands before calling an iterative solver
           528 MiB given to the printing process from OS
             0 MiB allocation reported by mallinfo(arena+hblkhd)
        174407 MiB available memory on the node where the printing process lives
------------------
     c_bands:  1 eigenvalues not converged
     ethr =  2.82E-06,  avg # of iterations = 20.0

     negative rho (up, down):  1.098E-02 0.000E+00

     total cpu time spent up to now is      562.6 secs

     total energy              =   -3257.24992253 Ry
     estimated scf accuracy    <       0.18095626 Ry

     iteration # 49     ecut=    40.00 Ry     beta= 0.40
     Davidson diagonalization with overlap

---- Real-time Memory Report at c_bands before calling an iterative solver
           528 MiB given to the printing process from OS
             0 MiB allocation reported by mallinfo(arena+hblkhd)
        174407 MiB available memory on the node where the printing process lives
------------------
     c_bands:  1 eigenvalues not converged
     ethr =  2.82E-06,  avg # of iterations = 20.0

     negative rho (up, down):  1.078E-02 0.000E+00

     total cpu time spent up to now is      573.0 secs

     total energy              =   -3257.23314308 Ry
     estimated scf accuracy    <       0.10729070 Ry

     iteration # 50     ecut=    40.00 Ry     beta= 0.40
     Davidson diagonalization with overlap

---- Real-time Memory Report at c_bands before calling an iterative solver
           528 MiB given to the printing process from OS
             0 MiB allocation reported by mallinfo(arena+hblkhd)
        174406 MiB available memory on the node where the printing process lives
------------------
     ethr =  2.82E-06,  avg # of iterations = 17.0

     negative rho (up, down):  1.081E-02 0.000E+00

     total cpu time spent up to now is      591.0 secs

     total energy              =   -3257.27191873 Ry
     estimated scf accuracy    <       0.66451062 Ry

     iteration # 51     ecut=    40.00 Ry     beta= 0.40
     Davidson diagonalization with overlap

---- Real-time Memory Report at c_bands before calling an iterative solver
           528 MiB given to the printing process from OS
             0 MiB allocation reported by mallinfo(arena+hblkhd)
        174409 MiB available memory on the node where the printing process lives
------------------
     c_bands:  1 eigenvalues not converged
     ethr =  2.82E-06,  avg # of iterations = 20.0

     negative rho (up, down):  1.088E-02 0.000E+00

     total cpu time spent up to now is      603.7 secs

     total energy              =   -3257.24574993 Ry
     estimated scf accuracy    <       0.43497472 Ry

     iteration # 52     ecut=    40.00 Ry     beta= 0.40
     Davidson diagonalization with overlap

---- Real-time Memory Report at c_bands before calling an iterative solver
           528 MiB given to the printing process from OS
             0 MiB allocation reported by mallinfo(arena+hblkhd)
        174408 MiB available memory on the node where the printing process lives
------------------
     c_bands:  1 eigenvalues not converged
     ethr =  2.82E-06,  avg # of iterations = 20.0

     negative rho (up, down):  1.089E-02 0.000E+00

     total cpu time spent up to now is      618.3 secs

     total energy              =   -3257.23524357 Ry
     estimated scf accuracy    <       0.44784281 Ry

     iteration # 53     ecut=    40.00 Ry     beta= 0.40
     Davidson diagonalization with overlap

---- Real-time Memory Report at c_bands before calling an iterative solver
           528 MiB given to the printing process from OS
             0 MiB allocation reported by mallinfo(arena+hblkhd)
        174408 MiB available memory on the node where the printing process lives
------------------
     c_bands:  1 eigenvalues not converged
     ethr =  2.82E-06,  avg # of iterations = 20.0

     negative rho (up, down):  1.078E-02 0.000E+00

     total cpu time spent up to now is      630.5 secs

     total energy              =   -3257.24029583 Ry
     estimated scf accuracy    <       0.22297138 Ry

     iteration # 54     ecut=    40.00 Ry     beta= 0.40
     Davidson diagonalization with overlap

---- Real-time Memory Report at c_bands before calling an iterative solver
           528 MiB given to the printing process from OS
             0 MiB allocation reported by mallinfo(arena+hblkhd)
        174411 MiB available memory on the node where the printing process lives
------------------
     c_bands:  1 eigenvalues not converged
     ethr =  2.82E-06,  avg # of iterations = 20.0

     negative rho (up, down):  1.075E-02 0.000E+00

     total cpu time spent up to now is      640.9 secs

     total energy              =   -3257.24346758 Ry
     estimated scf accuracy    <       0.08153739 Ry

     iteration # 55     ecut=    40.00 Ry     beta= 0.40
     Davidson diagonalization with overlap

---- Real-time Memory Report at c_bands before calling an iterative solver
           528 MiB given to the printing process from OS
             0 MiB allocation reported by mallinfo(arena+hblkhd)
        174410 MiB available memory on the node where the printing process lives
------------------
     c_bands:  1 eigenvalues not converged
     ethr =  2.82E-06,  avg # of iterations = 20.0

     negative rho (up, down):  1.069E-02 0.000E+00

     total cpu time spent up to now is      651.2 secs

     total energy              =   -3257.24739868 Ry
     estimated scf accuracy    <       0.05528893 Ry

     iteration # 56     ecut=    40.00 Ry     beta= 0.40
     Davidson diagonalization with overlap

---- Real-time Memory Report at c_bands before calling an iterative solver
           528 MiB given to the printing process from OS
             0 MiB allocation reported by mallinfo(arena+hblkhd)
        174410 MiB available memory on the node where the printing process lives
------------------
     c_bands:  1 eigenvalues not converged
     ethr =  2.82E-06,  avg # of iterations = 20.0

     negative rho (up, down):  1.067E-02 0.000E+00

     total cpu time spent up to now is      661.7 secs

     total energy              =   -3257.24961385 Ry
     estimated scf accuracy    <       0.05620165 Ry

     iteration # 57     ecut=    40.00 Ry     beta= 0.40
     Davidson diagonalization with overlap

---- Real-time Memory Report at c_bands before calling an iterative solver
           528 MiB given to the printing process from OS
             0 MiB allocation reported by mallinfo(arena+hblkhd)
        174409 MiB available memory on the node where the printing process lives
------------------
     c_bands:  1 eigenvalues not converged
     ethr =  2.82E-06,  avg # of iterations = 20.0

     negative rho (up, down):  1.069E-02 0.000E+00

     total cpu time spent up to now is      672.5 secs

     total energy              =   -3257.24995751 Ry
     estimated scf accuracy    <       0.03142435 Ry

     iteration # 58     ecut=    40.00 Ry     beta= 0.40
     Davidson diagonalization with overlap

---- Real-time Memory Report at c_bands before calling an iterative solver
           528 MiB given to the printing process from OS
             0 MiB allocation reported by mallinfo(arena+hblkhd)
        174412 MiB available memory on the node where the printing process lives
------------------
     ethr =  2.82E-06,  avg # of iterations = 19.0

     negative rho (up, down):  1.070E-02 0.000E+00

     total cpu time spent up to now is      683.0 secs

     total energy              =   -3257.24632201 Ry
     estimated scf accuracy    <       0.02114395 Ry

     iteration # 59     ecut=    40.00 Ry     beta= 0.40
     Davidson diagonalization with overlap

---- Real-time Memory Report at c_bands before calling an iterative solver
           528 MiB given to the printing process from OS
             0 MiB allocation reported by mallinfo(arena+hblkhd)
        174409 MiB available memory on the node where the printing process lives
------------------
     c_bands:  1 eigenvalues not converged
     ethr =  2.82E-06,  avg # of iterations = 20.0

     negative rho (up, down):  1.067E-02 0.000E+00

     total cpu time spent up to now is      698.6 secs

     total energy              =   -3257.23713044 Ry
     estimated scf accuracy    <       0.43643825 Ry

     iteration # 60     ecut=    40.00 Ry     beta= 0.40
     Davidson diagonalization with overlap

---- Real-time Memory Report at c_bands before calling an iterative solver
           528 MiB given to the printing process from OS
             0 MiB allocation reported by mallinfo(arena+hblkhd)
        174409 MiB available memory on the node where the printing process lives
------------------
     c_bands:  1 eigenvalues not converged
     ethr =  2.82E-06,  avg # of iterations = 20.0

     negative rho (up, down):  1.068E-02 0.000E+00

     total cpu time spent up to now is      713.7 secs

     total energy              =   -3257.24952387 Ry
     estimated scf accuracy    <       0.07477648 Ry

     iteration # 61     ecut=    40.00 Ry     beta= 0.40
     Davidson diagonalization with overlap

---- Real-time Memory Report at c_bands before calling an iterative solver
           528 MiB given to the printing process from OS
             0 MiB allocation reported by mallinfo(arena+hblkhd)
[...]
           535 MiB given to the printing process from OS
             0 MiB allocation reported by mallinfo(arena+hblkhd)
        174382 MiB available memory on the node where the printing process lives
------------------
     c_bands:  1 eigenvalues not converged
     ethr =  1.08E-06,  avg # of iterations = 20.0

     negative rho (up, down):  1.073E-02 0.000E+00

     total cpu time spent up to now is     1109.0 secs

     total energy              =   -3257.24656089 Ry
     estimated scf accuracy    <       0.12913227 Ry

     iteration # 96     ecut=    40.00 Ry     beta= 0.40
     Davidson diagonalization with overlap

---- Real-time Memory Report at c_bands before calling an iterative solver
           535 MiB given to the printing process from OS
             0 MiB allocation reported by mallinfo(arena+hblkhd)
        174382 MiB available memory on the node where the printing process lives
------------------
     c_bands:  1 eigenvalues not converged
     ethr =  1.08E-06,  avg # of iterations = 20.0

     negative rho (up, down):  1.072E-02 0.000E+00

     total cpu time spent up to now is     1123.6 secs

     total energy              =   -3257.24712338 Ry
     estimated scf accuracy    <       0.07056307 Ry

     iteration # 97     ecut=    40.00 Ry     beta= 0.40
     Davidson diagonalization with overlap

---- Real-time Memory Report at c_bands before calling an iterative solver
           535 MiB given to the printing process from OS
             0 MiB allocation reported by mallinfo(arena+hblkhd)
        174378 MiB available memory on the node where the printing process lives
------------------
     c_bands:  1 eigenvalues not converged
     ethr =  1.08E-06,  avg # of iterations = 20.0

     negative rho (up, down):  1.072E-02 0.000E+00

     total cpu time spent up to now is     1136.3 secs

     total energy              =   -3257.24758241 Ry
     estimated scf accuracy    <       0.07065030 Ry

     iteration # 98     ecut=    40.00 Ry     beta= 0.40
     Davidson diagonalization with overlap

---- Real-time Memory Report at c_bands before calling an iterative solver
           535 MiB given to the printing process from OS
             0 MiB allocation reported by mallinfo(arena+hblkhd)
        174377 MiB available memory on the node where the printing process lives
------------------
     c_bands:  1 eigenvalues not converged
     ethr =  1.08E-06,  avg # of iterations = 20.0

     negative rho (up, down):  1.070E-02 0.000E+00

     total cpu time spent up to now is     1151.4 secs

     total energy              =   -3257.24596004 Ry
     estimated scf accuracy    <       0.11241928 Ry

     iteration # 99     ecut=    40.00 Ry     beta= 0.40
     Davidson diagonalization with overlap

---- Real-time Memory Report at c_bands before calling an iterative solver
           535 MiB given to the printing process from OS
             0 MiB allocation reported by mallinfo(arena+hblkhd)
        174386 MiB available memory on the node where the printing process lives
------------------
     c_bands:  1 eigenvalues not converged
     ethr =  1.08E-06,  avg # of iterations = 20.0

     negative rho (up, down):  1.073E-02 0.000E+00

     total cpu time spent up to now is     1165.5 secs

     total energy              =   -3257.24808773 Ry
     estimated scf accuracy    <       0.02855339 Ry

     iteration #100     ecut=    40.00 Ry     beta= 0.40
     Davidson diagonalization with overlap

---- Real-time Memory Report at c_bands before calling an iterative solver
           535 MiB given to the printing process from OS
             0 MiB allocation reported by mallinfo(arena+hblkhd)
        174384 MiB available memory on the node where the printing process lives
------------------
     c_bands:  1 eigenvalues not converged
     ethr =  1.08E-06,  avg # of iterations = 20.0

     negative rho (up, down):  1.077E-02 0.000E+00

     total cpu time spent up to now is     1176.1 secs

     total energy              =   -3257.24723954 Ry
     estimated scf accuracy    <       0.08765115 Ry

     iteration #101     ecut=    40.00 Ry     beta= 0.40
     Davidson diagonalization with overlap

---- Real-time Memory Report at c_bands before calling an iterative solver
           535 MiB given to the printing process from OS
             0 MiB allocation reported by mallinfo(arena+hblkhd)
        174386 MiB available memory on the node where the printing process lives
------------------
     c_bands:  1 eigenvalues not converged
     ethr =  1.08E-06,  avg # of iterations = 20.0

     negative rho (up, down):  1.075E-02 0.000E+00

     total cpu time spent up to now is     1190.2 secs

     total energy              =   -3257.23604493 Ry
     estimated scf accuracy    <       0.74597179 Ry

     iteration #102     ecut=    40.00 Ry     beta= 0.40
     Davidson diagonalization with overlap

---- Real-time Memory Report at c_bands before calling an iterative solver
           536 MiB given to the printing process from OS
             0 MiB allocation reported by mallinfo(arena+hblkhd)
        174381 MiB available memory on the node where the printing process lives
------------------
     c_bands:  1 eigenvalues not converged
     ethr =  1.08E-06,  avg # of iterations = 20.0

     negative rho (up, down):  1.074E-02 0.000E+00

     total cpu time spent up to now is     1205.1 secs

     total energy              =   -3257.24233978 Ry
     estimated scf accuracy    <       0.57605974 Ry

     iteration #103     ecut=    40.00 Ry     beta= 0.40
     Davidson diagonalization with overlap

---- Real-time Memory Report at c_bands before calling an iterative solver
           536 MiB given to the printing process from OS
             0 MiB allocation reported by mallinfo(arena+hblkhd)
        174379 MiB available memory on the node where the printing process lives
------------------
     c_bands:  1 eigenvalues not converged
     ethr =  1.08E-06,  avg # of iterations = 20.0

     negative rho (up, down):  1.077E-02 0.000E+00

     total cpu time spent up to now is     1218.9 secs

     total energy              =   -3257.25085445 Ry
     estimated scf accuracy    <       0.08211529 Ry

     iteration #104     ecut=    40.00 Ry     beta= 0.40
     Davidson diagonalization with overlap

---- Real-time Memory Report at c_bands before calling an iterative solver
           536 MiB given to the printing process from OS
             0 MiB allocation reported by mallinfo(arena+hblkhd)
        174380 MiB available memory on the node where the printing process lives
------------------
     c_bands:  1 eigenvalues not converged
     ethr =  1.08E-06,  avg # of iterations = 20.0

     negative rho (up, down):  1.078E-02 0.000E+00

     total cpu time spent up to now is     1230.8 secs

     total energy              =   -3257.24715149 Ry
     estimated scf accuracy    <       0.05895735 Ry

     iteration #105     ecut=    40.00 Ry     beta= 0.40
     Davidson diagonalization with overlap

---- Real-time Memory Report at c_bands before calling an iterative solver
           536 MiB given to the printing process from OS
             0 MiB allocation reported by mallinfo(arena+hblkhd)
        174378 MiB available memory on the node where the printing process lives
------------------
     c_bands:  1 eigenvalues not converged
     ethr =  1.08E-06,  avg # of iterations = 20.0

     negative rho (up, down):  1.074E-02 0.000E+00

     total cpu time spent up to now is     1244.8 secs

     total energy              =   -3257.24149423 Ry
     estimated scf accuracy    <       0.60146390 Ry

     iteration #106     ecut=    40.00 Ry     beta= 0.40
     Davidson diagonalization with overlap

---- Real-time Memory Report at c_bands before calling an iterative solver
           536 MiB given to the printing process from OS
             0 MiB allocation reported by mallinfo(arena+hblkhd)
        174378 MiB available memory on the node where the printing process lives
------------------
     c_bands:  1 eigenvalues not converged
     ethr =  1.08E-06,  avg # of iterations = 20.0

     negative rho (up, down):  1.072E-02 0.000E+00

     total cpu time spent up to now is     1256.7 secs

     total energy              =   -3257.25021741 Ry
     estimated scf accuracy    <       0.05953173 Ry

     iteration #107     ecut=    40.00 Ry     beta= 0.40
     Davidson diagonalization with overlap

---- Real-time Memory Report at c_bands before calling an iterative solver
           536 MiB given to the printing process from OS
             0 MiB allocation reported by mallinfo(arena+hblkhd)
        174378 MiB available memory on the node where the printing process lives
------------------
     c_bands:  1 eigenvalues not converged
     ethr =  1.08E-06,  avg # of iterations = 20.0

     negative rho (up, down):  1.074E-02 0.000E+00

     total cpu time spent up to now is     1266.9 secs

     total energy              =   -3257.25068856 Ry
     estimated scf accuracy    <       0.05905440 Ry

     iteration #108     ecut=    40.00 Ry     beta= 0.40
     Davidson diagonalization with overlap

---- Real-time Memory Report at c_bands before calling an iterative solver
           536 MiB given to the printing process from OS
             0 MiB allocation reported by mallinfo(arena+hblkhd)
        174378 MiB available memory on the node where the printing process lives
------------------
     ethr =  1.08E-06,  avg # of iterations = 18.0

     negative rho (up, down):  1.074E-02 0.000E+00

     total cpu time spent up to now is     1277.3 secs

     total energy              =   -3257.24846746 Ry
     estimated scf accuracy    <       0.05968101 Ry

     iteration #109     ecut=    40.00 Ry     beta= 0.40
     Davidson diagonalization with overlap

---- Real-time Memory Report at c_bands before calling an iterative solver
           536 MiB given to the printing process from OS
             0 MiB allocation reported by mallinfo(arena+hblkhd)
        174386 MiB available memory on the node where the printing process lives
------------------
     c_bands:  1 eigenvalues not converged
     ethr =  1.08E-06,  avg # of iterations = 20.0

     negative rho (up, down):  1.071E-02 0.000E+00

     total cpu time spent up to now is     1289.5 secs

     total energy              =   -3257.24664344 Ry
     estimated scf accuracy    <       0.23383203 Ry

     iteration #110     ecut=    40.00 Ry     beta= 0.40
     Davidson diagonalization with overlap

---- Real-time Memory Report at c_bands before calling an iterative solver
           536 MiB given to the printing process from OS
             0 MiB allocation reported by mallinfo(arena+hblkhd)
        174382 MiB available memory on the node where the printing process lives
------------------
     c_bands:  1 eigenvalues not converged
     ethr =  1.08E-06,  avg # of iterations = 20.0

     negative rho (up, down):  1.073E-02 0.000E+00

     total cpu time spent up to now is     1301.2 secs

     total energy              =   -3257.24905358 Ry
     estimated scf accuracy    <       0.09735674 Ry

     iteration #111     ecut=    40.00 Ry     beta= 0.40
     Davidson diagonalization with overlap

---- Real-time Memory Report at c_bands before calling an iterative solver
           536 MiB given to the printing process from OS
             0 MiB allocation reported by mallinfo(arena+hblkhd)
        174380 MiB available memory on the node where the printing process lives
------------------
     c_bands:  1 eigenvalues not converged
     ethr =  1.08E-06,  avg # of iterations = 20.0

     negative rho (up, down):  1.078E-02 0.000E+00

     total cpu time spent up to now is     1311.9 secs

     total energy              =   -3257.24961752 Ry
     estimated scf accuracy    <       0.08562166 Ry

     iteration #112     ecut=    40.00 Ry     beta= 0.40
     Davidson diagonalization with overlap

---- Real-time Memory Report at c_bands before calling an iterative solver
           536 MiB given to the printing process from OS
             0 MiB allocation reported by mallinfo(arena+hblkhd)
        174376 MiB available memory on the node where the printing process lives
------------------
     c_bands:  1 eigenvalues not converged
     ethr =  1.08E-06,  avg # of iterations = 20.0

     negative rho (up, down):  1.078E-02 0.000E+00

     total cpu time spent up to now is     1322.5 secs

     total energy              =   -3257.24868049 Ry
     estimated scf accuracy    <       0.04307150 Ry

     iteration #113     ecut=    40.00 Ry     beta= 0.40
     Davidson diagonalization with overlap

---- Real-time Memory Report at c_bands before calling an iterative solver
           536 MiB given to the printing process from OS
             0 MiB allocation reported by mallinfo(arena+hblkhd)
        174376 MiB available memory on the node where the printing process lives
------------------
     c_bands:  1 eigenvalues not converged
     ethr =  1.08E-06,  avg # of iterations = 20.0

     negative rho (up, down):  1.074E-02 0.000E+00

     total cpu time spent up to now is     1334.4 secs

     total energy              =   -3257.24815450 Ry
     estimated scf accuracy    <       0.11396418 Ry

     iteration #114     ecut=    40.00 Ry     beta= 0.40
     Davidson diagonalization with overlap

---- Real-time Memory Report at c_bands before calling an iterative solver
           536 MiB given to the printing process from OS
             0 MiB allocation reported by mallinfo(arena+hblkhd)
        174377 MiB available memory on the node where the printing process lives
------------------
     c_bands:  1 eigenvalues not converged
     ethr =  1.08E-06,  avg # of iterations = 20.0

     negative rho (up, down):  1.076E-02 0.000E+00

     total cpu time spent up to now is     1346.2 secs

     total energy              =   -3257.25020147 Ry
     estimated scf accuracy    <       0.15368089 Ry

     iteration #115     ecut=    40.00 Ry     beta= 0.40
     Davidson diagonalization with overlap

---- Real-time Memory Report at c_bands before calling an iterative solver
           536 MiB given to the printing process from OS
             0 MiB allocation reported by mallinfo(arena+hblkhd)
        174368 MiB available memory on the node where the printing process lives
------------------
     c_bands:  1 eigenvalues not converged
     ethr =  1.08E-06,  avg # of iterations = 20.0

     negative rho (up, down):  1.080E-02 0.000E+00

     total cpu time spent up to now is     1356.5 secs

     total energy              =   -3257.25078344 Ry
     estimated scf accuracy    <       0.09639419 Ry

     iteration #116     ecut=    40.00 Ry     beta= 0.40
     Davidson diagonalization with overlap

---- Real-time Memory Report at c_bands before calling an iterative solver
           536 MiB given to the printing process from OS
             0 MiB allocation reported by mallinfo(arena+hblkhd)
        174367 MiB available memory on the node where the printing process lives
------------------
     ethr =  1.08E-06,  avg # of iterations =  2.0

     negative rho (up, down):  1.082E-02 0.000E+00

     total cpu time spent up to now is     1365.7 secs

     total energy              =   -3257.24837904 Ry
     estimated scf accuracy    <       0.09539333 Ry

     iteration #117     ecut=    40.00 Ry     beta= 0.40
     Davidson diagonalization with overlap

---- Real-time Memory Report at c_bands before calling an iterative solver
           536 MiB given to the printing process from OS
             0 MiB allocation reported by mallinfo(arena+hblkhd)
        174361 MiB available memory on the node where the printing process lives
------------------
     c_bands:  1 eigenvalues not converged
     ethr =  1.08E-06,  avg # of iterations = 20.0

     negative rho (up, down):  1.081E-02 0.000E+00

     total cpu time spent up to now is     1377.1 secs

     total energy              =   -3257.24342417 Ry
     estimated scf accuracy    <       0.07399001 Ry

     iteration #118     ecut=    40.00 Ry     beta= 0.40
     Davidson diagonalization with overlap

---- Real-time Memory Report at c_bands before calling an iterative solver
           536 MiB given to the printing process from OS
             0 MiB allocation reported by mallinfo(arena+hblkhd)
        174362 MiB available memory on the node where the printing process lives
------------------
     c_bands:  1 eigenvalues not converged
     ethr =  1.08E-06,  avg # of iterations = 20.0

     negative rho (up, down):  1.078E-02 0.000E+00

     total cpu time spent up to now is     1391.7 secs

     total energy              =   -3257.24078895 Ry
     estimated scf accuracy    <       0.28071070 Ry

     iteration #119     ecut=    40.00 Ry     beta= 0.40
     Davidson diagonalization with overlap

---- Real-time Memory Report at c_bands before calling an iterative solver
           536 MiB given to the printing process from OS
             0 MiB allocation reported by mallinfo(arena+hblkhd)
        174368 MiB available memory on the node where the printing process lives
------------------
     c_bands:  1 eigenvalues not converged
     ethr =  1.08E-06,  avg # of iterations = 20.0

     negative rho (up, down):  1.076E-02 0.000E+00

     total cpu time spent up to now is     1404.7 secs

     total energy              =   -3257.24833732 Ry
     estimated scf accuracy    <       0.45002137 Ry

     iteration #120     ecut=    40.00 Ry     beta= 0.40
     Davidson diagonalization with overlap

---- Real-time Memory Report at c_bands before calling an iterative solver
           536 MiB given to the printing process from OS
             0 MiB allocation reported by mallinfo(arena+hblkhd)
        174368 MiB available memory on the node where the printing process lives
------------------
     c_bands:  1 eigenvalues not converged
     ethr =  1.08E-06,  avg # of iterations = 20.0

     negative rho (up, down):  1.076E-02 0.000E+00

     total cpu time spent up to now is     1418.6 secs

     total energy              =   -3257.25157488 Ry
     estimated scf accuracy    <       0.19889543 Ry

     iteration #121     ecut=    40.00 Ry     beta= 0.40
     Davidson diagonalization with overlap

---- Real-time Memory Report at c_bands before calling an iterative solver
           536 MiB given to the printing process from OS
             0 MiB allocation reported by mallinfo(arena+hblkhd)
        174367 MiB available memory on the node where the printing process lives
------------------
     c_bands:  1 eigenvalues not converged
     ethr =  1.08E-06,  avg # of iterations = 20.0

     negative rho (up, down):  1.076E-02 0.000E+00

     total cpu time spent up to now is     1428.9 secs

     total energy              =   -3257.25151756 Ry
     estimated scf accuracy    <       0.12845382 Ry

     iteration #122     ecut=    40.00 Ry     beta= 0.40
     Davidson diagonalization with overlap

---- Real-time Memory Report at c_bands before calling an iterative solver
           536 MiB given to the printing process from OS
             0 MiB allocation reported by mallinfo(arena+hblkhd)
        174366 MiB available memory on the node where the printing process lives
------------------
     c_bands:  1 eigenvalues not converged
     ethr =  1.08E-06,  avg # of iterations = 20.0

     negative rho (up, down):  1.074E-02 0.000E+00

     total cpu time spent up to now is     1442.3 secs

     total energy              =   -3257.24566838 Ry
     estimated scf accuracy    <       0.17685313 Ry

     iteration #123     ecut=    40.00 Ry     beta= 0.40
     Davidson diagonalization with overlap

---- Real-time Memory Report at c_bands before calling an iterative solver
           536 MiB given to the printing process from OS
             0 MiB allocation reported by mallinfo(arena+hblkhd)
        174377 MiB available memory on the node where the printing process lives
------------------
