--------------------------------------------------------------------------
WARNING: There was an error initializing an OpenFabrics device.

  Local host:   ga00
  Local device: mlx5_0
--------------------------------------------------------------------------

     Program PWSCF v.7.3.1 starts on 13Apr2025 at 17:34:51 

     This program is part of the open-source Quantum ESPRESSO suite
     for quantum simulation of materials; please cite
         "P. Giannozzi et al., J. Phys.:Condens. Matter 21 395502 (2009);
         "P. Giannozzi et al., J. Phys.:Condens. Matter 29 465901 (2017);
         "P. Giannozzi et al., J. Chem. Phys. 152 154105 (2020);
          URL http://www.quantum-espresso.org", 
     in publications or presentations arising from this work. More details at
     http://www.quantum-espresso.org/quote

     Parallel version (MPI), running on    31 processors

     MPI processes distributed on     1 nodes
     29874 MiB available memory on the printing compute node when the environment starts

     Waiting for input...
     Reading input from standard input

     Current dimensions of program PWSCF are:
     Max number of different atomic species (ntypx) = 10
     Max number of k-points (npk) =  40000
     Max angular momentum in pseudopotentials (lmaxx) =  4
     file C.pbe-n-kjpaw_psl.1.0.0.UPF: wavefunction(s)  2S 2P renormalized
     file O.pbe-n-kjpaw_psl.0.1.UPF: wavefunction(s)  2P renormalized

     R & G space division:  proc/nbgrp/npool/nimage =      31
     Subspace diagonalization in iterative solution of the eigenvalue problem:
     one sub-group per band group will be used
     custom distributed-memory algorithm (size of sub-group:  3*  3 procs)


     Parallelization info
     --------------------
     sticks:   dense  smooth     PW     G-vecs:    dense   smooth      PW
     Min        1421     710    177               193971    68581    8571
     Max        1422     711    178               193974    68585    8575
     Sum       44077   22039   5507              6013149  2126099  265753

     Using Slab Decomposition



     bravais-lattice index     =            0
     lattice parameter (alat)  =      30.3068  a.u.
     unit-cell volume          =   21992.9985 (a.u.)^3
     number of atoms/cell      =          132
     number of atomic types    =            5
     number of electrons       =       568.00
     number of Kohn-Sham states=          341
     kinetic-energy cutoff     =      80.0000  Ry
     charge density cutoff     =     640.0000  Ry
     scf convergence threshold =      1.0E-08
     mixing beta               =       0.2000
     number of iterations used =            8  plain     mixing
     Exchange-correlation= SLA  PW   PBX  PBC
                           (   1   4   3   4   0   0   0)

     celldm(1)=  30.306823  celldm(2)=   0.000000  celldm(3)=   0.000000
     celldm(4)=   0.000000  celldm(5)=   0.000000  celldm(6)=   0.000000

     crystal axes: (cart. coord. in units of alat)
               a(1) = (   0.999970  -0.004119   0.006591 )  
               a(2) = (  -0.381917   0.943796  -0.000088 )  
               a(3) = (  -0.303567  -0.467633   0.835329 )  

     reciprocal axes: (cart. coord. in units 2 pi/alat)
               b(1) = (  0.997814  0.403831  0.588688 )  
               b(2) = (  0.000454  1.059790  0.593456 )  
               b(3) = ( -0.007873 -0.003075  1.192552 )  


     PseudoPot. # 1 for Ti read from file:
     /home/yongsang/Research/PSID_server_room/qe/[00]QE/qepseudo/SSSP_1.3.0_PBE_efficiency/ti_pbe_v1.4.uspp.F.UPF
     MD5 check sum: 88a00a6731bd790ddea75d31a80cb452
     Pseudo is Ultrasoft + core correction, Zval = 12.0
     Generated by new atomic code, or converted to UPF format
     Using radial grid of  851 points,  6 beta functions with: 
                l(1) =   0
                l(2) =   0
                l(3) =   1
                l(4) =   1
                l(5) =   2
                l(6) =   2
     Q(r) pseudized with  6 coefficients,  rinner =    1.000   1.000   1.000
                                                       1.000   1.000

     PseudoPot. # 2 for N  read from file:
     /home/yongsang/Research/PSID_server_room/qe/[00]QE/qepseudo/SSSP_1.3.0_PBE_efficiency/N.pbe-n-radius_5.UPF
     MD5 check sum: 16739722b17309cd8fe442a2ace49922
     Pseudo is Ultrasoft + core correction, Zval =  5.0
     Generated using "atomic" code by A. Dal Corso  v.5.1
     Using radial grid of 1085 points,  4 beta functions with: 
                l(1) =   0
                l(2) =   0
                l(3) =   1
                l(4) =   1
     Q(r) pseudized with 0 coefficients 


     PseudoPot. # 3 for C  read from file:
     /home/yongsang/Research/PSID_server_room/qe/[00]QE/qepseudo/SSSP_1.3.0_PBE_efficiency/C.pbe-n-kjpaw_psl.1.0.0.UPF
     MD5 check sum: 5d2aebdfa2cae82b50a7e79e9516da0f
     Pseudo is Projector augmented-wave + core cor, Zval =  4.0
     Generated using "atomic" code by A. Dal Corso  v.5.1
     Shape of augmentation charge: PSQ
     Using radial grid of 1073 points,  4 beta functions with: 
                l(1) =   0
                l(2) =   0
                l(3) =   1
                l(4) =   1
     Q(r) pseudized with 0 coefficients 


     PseudoPot. # 4 for H  read from file:
     /home/yongsang/Research/PSID_server_room/qe/[00]QE/qepseudo/SSSP_1.3.0_PBE_efficiency/H.pbe-rrkjus_psl.1.0.0.UPF
     MD5 check sum: f52b6d4d1c606e5624b1dc7b2218f220
     Pseudo is Ultrasoft, Zval =  1.0
     Generated using "atomic" code by A. Dal Corso  v.5.1
     Using radial grid of  929 points,  2 beta functions with: 
                l(1) =   0
                l(2) =   0
     Q(r) pseudized with 0 coefficients 


     PseudoPot. # 5 for O  read from file:
     /home/yongsang/Research/PSID_server_room/qe/[00]QE/qepseudo/SSSP_1.3.0_PBE_efficiency/O.pbe-n-kjpaw_psl.0.1.UPF
     MD5 check sum: 0234752ac141de4415c5fc33072bef88
     Pseudo is Projector augmented-wave + core cor, Zval =  6.0
     Generated using "atomic" code by A. Dal Corso  v.5.0.99 svn rev. 10869
     Shape of augmentation charge: BESSEL
     Using radial grid of 1095 points,  4 beta functions with: 
                l(1) =   0
                l(2) =   0
                l(3) =   1
                l(4) =   1
     Q(r) pseudized with 0 coefficients 


     atomic species   valence    mass     pseudopotential
     Ti               12.00    47.86700     Ti( 1.00)
     N                 5.00    14.00674     N ( 1.00)
     C                 4.00    12.01070     C ( 1.00)
     H                 1.00     1.00794     H ( 1.00)
     O                 6.00    15.99940     O ( 1.00)

     No symmetry found


                                    s                        frac. trans.

      isym =  1     identity                                     

 cryst.   s( 1) = (     1          0          0      )
                  (     0          1          0      )
                  (     0          0          1      )

 cart.    s( 1) = (  1.0000000  0.0000000 -0.0000000 )
                  ( -0.0000000  1.0000000  0.0000000 )
                  (  0.0000000  0.0000000  1.0000000 )


   Cartesian axes

     site n.     atom                  positions (alat units)
         1        Ti     tau(   1) = (  -0.1859674   0.1428679   0.7206433  )
         2        Ti     tau(   2) = (   0.5071897   0.3350719   0.1197776  )
         3        Ti     tau(   3) = (   0.0990385  -0.0616158   0.6021539  )
         4        Ti     tau(   4) = (   0.2198080   0.5412496   0.2374001  )
         5        Ti     tau(   5) = (   0.1158692   0.5980518   0.1151075  )
         6        Ti     tau(   6) = (   0.1919007  -0.1329815   0.7250710  )
         7        Ti     tau(   7) = (  -0.0947695   0.0639406   0.6014652  )
         8        Ti     tau(   8) = (   0.4018196   0.4017223   0.2351730  )
         9        H      tau(   9) = (   0.2294082   0.1045468   0.4473080  )
        10        H      tau(  10) = (  -0.0001747  -0.2480404   0.4610804  )
        11        H      tau(  11) = (   0.3223125   0.7171067   0.3791185  )
        12        H      tau(  12) = (  -0.1853175   0.3929614   0.7102917  )
        13        H      tau(  13) = (   0.4992199   0.0805099   0.1375539  )
        14        H      tau(  14) = (  -0.4210329   0.0456978   0.6996463  )
        15        H      tau(  15) = (   0.7372510   0.4284627   0.1319447  )
        16        H      tau(  16) = (   0.2027059  -0.3942156   0.7053155  )
        17        H      tau(  17) = (  -0.1277265   0.5116009   0.1319113  )
        18        H      tau(  18) = (   0.3013667   0.2250810   0.3779565  )
        19        H      tau(  19) = (   0.0051999   0.2498799   0.4642636  )
        20        H      tau(  20) = (  -0.2276641  -0.1067050   0.4532022  )
        21        H      tau(  21) = (   0.1741803   0.5113535  -0.0041785  )
        22        H      tau(  22) = (   0.4409118   0.4265076   0.0068687  )
        23        H      tau(  23) = (   0.0291012   0.0438920   0.6978051  )
        24        H      tau(  24) = (   0.2802394   0.4335570   0.1389800  )
        25        H      tau(  25) = (   0.2297731  -0.1457287   0.3854905  )
        26        H      tau(  26) = (   0.0862984   0.6141191   0.4561410  )
        27        H      tau(  27) = (  -0.3737079   0.2588403   0.5698472  )
        28        H      tau(  28) = (   0.6851404   0.2137952   0.2754880  )
        29        H      tau(  29) = (  -0.2197774   0.1555631   0.3762326  )
        30        H      tau(  30) = (  -0.0676195   0.7323427   0.2712187  )
        31        H      tau(  31) = (   0.0051860   0.3883725   0.4109361  )
        32        H      tau(  32) = (   0.0938410   0.4345100   0.3657451  )
        33        H      tau(  33) = (   0.1061202   0.7990162   0.1638885  )
        34        H      tau(  34) = (   0.4926919  -0.0467637   0.2130443  )
        35        H      tau(  35) = (   0.4691259  -0.0216758   0.6296367  )
        36        H      tau(  36) = (   0.3837026  -0.0710007   0.6779539  )
        37        H      tau(  37) = (   0.6234873   0.5606456   0.3990157  )
        38        H      tau(  38) = (   0.5364873   0.5159864   0.3493208  )
        39        H      tau(  39) = (   0.5059028   0.3317706   0.5396635  )
        40        H      tau(  40) = (   0.4763725   0.3500639   0.4354801  )
        41        H      tau(  41) = (   0.4391846  -0.3083157   0.5989346  )
        42        H      tau(  42) = (   0.3568722  -0.2450793   0.6343809  )
        43        C      tau(  43) = (   0.5496401   0.3042342   0.2973472  )
        44        C      tau(  44) = (  -0.2368059   0.1683414   0.5447962  )
        45        C      tau(  45) = (   0.2472878  -0.1593586   0.5480405  )
        46        C      tau(  46) = (   0.0665141   0.6300931   0.2919533  )
        47        C      tau(  47) = (   0.6018436   0.2689442   0.3642395  )
        48        C      tau(  48) = (  -0.2921893   0.2044268   0.4792741  )
        49        C      tau(  49) = (   0.3003398  -0.2000865   0.4848933  )
        50        C      tau(  50) = (   0.0143320   0.6694062   0.3582173  )
        51        C      tau(  51) = (   0.5831580   0.2810318   0.4507775  )
        52        C      tau(  52) = (  -0.2743723   0.1917072   0.3940968  )
        53        C      tau(  53) = (   0.3686335  -0.2533410   0.5069687  )
        54        C      tau(  54) = (  -0.0532002   0.7214373   0.3366160  )
        55        C      tau(  55) = (   0.0335679   0.6544560   0.4413477  )
        56        C      tau(  56) = (   0.2823312  -0.1863088   0.3999139  )
        57        C      tau(  57) = (   0.6728406   0.2221097   0.3417725  )
        58        C      tau(  58) = (  -0.3616379   0.2501163   0.5034768  )
        59        C      tau(  59) = (   0.1954416   0.3061387   0.3834166  )
        60        C      tau(  60) = (   0.1129330   0.1713896   0.4590804  )
        61        C      tau(  61) = (   0.4306028   0.6390604   0.3781878  )
        62        C      tau(  62) = (  -0.1097639  -0.1717556   0.4611018  )
        63        C      tau(  63) = (   0.5038210   0.0847932   0.0043896  )
        64        C      tau(  64) = (   0.1131349   0.8539304   0.0080925  )
        65        C      tau(  65) = (   0.7334034   0.4235904  -0.0012979  )
        66        C      tau(  66) = (  -0.1159297   0.5168986  -0.0023856  )
        67        C      tau(  67) = (   0.2413586   0.3731092   0.3400450  )
        68        C      tau(  68) = (   0.0689379   0.1004912   0.5006634  )
        69        C      tau(  69) = (   0.3871293   0.5743148   0.3298842  )
        70        C      tau(  70) = (  -0.0683906  -0.1044037   0.5101515  )
        71        C      tau(  71) = (   0.5077480   0.1777161   0.0037211  )
        72        C      tau(  72) = (   0.1104478   0.7621845   0.0054619  )
        73        C      tau(  73) = (   0.6532727   0.3784957   0.0004330  )
        74        C      tau(  74) = (  -0.0343948   0.5619900  -0.0000890  )
        75        C      tau(  75) = (   0.1101193   0.3150380   0.4082311  )
        76        C      tau(  76) = (   0.1972468   0.1631667   0.4357521  )
        77        C      tau(  77) = (   0.3870394   0.7124442   0.3992116  )
        78        C      tau(  78) = (  -0.0650200  -0.2431037   0.4411591  )
        79        C      tau(  79) = (   0.4993944   0.0436598   0.0804012  )
        80        C      tau(  80) = (  -0.1857325   0.4299271   0.7672849  )
        81        C      tau(  81) = (   0.7699254   0.4465539   0.0752319  )
        82        C      tau(  82) = (  -0.4538890   0.0278198   0.7564813  )
        83        C      tau(  83) = (   0.5159807   0.6302218   0.4029281  )
        84        C      tau(  84) = (  -0.1938505  -0.1632034   0.4368823  )
        85        C      tau(  85) = (   0.2366798   0.2299695   0.3980623  )
        86        C      tau(  86) = (   0.0704387   0.2455552   0.4454297  )
        87        C      tau(  87) = (   0.4705295  -0.0215331   0.7577448  )
        88        C      tau(  88) = (  -0.1558514   0.4944156   0.0726134  )
        89        C      tau(  89) = (   0.2000389  -0.4277843   0.7642206  )
        90        C      tau(  90) = (   0.1123524   0.8995436   0.0848353  )
        91        N      tau(  91) = (   0.0669003   0.3873255   0.3984945  )
        92        N      tau(  92) = (   0.1063966   0.8622781   0.1606285  )
        93        N      tau(  93) = (   0.4403549  -0.0428089   0.6815006  )
        94        N      tau(  94) = (   0.5618847   0.5610625   0.3859605  )
        95        N      tau(  95) = (   0.5153762   0.3238813   0.4779295  )
        96        N      tau(  96) = (   0.3901217  -0.2707127   0.5870225  )
        97        O      tau(  97) = (   0.4863948   0.3492705   0.3176163  )
        98        O      tau(  98) = (  -0.1776372   0.1205655   0.5216452  )
        99        O      tau(  99) = (   0.2646772  -0.1707008   0.6256787  )
       100        O      tau( 100) = (   0.0463233   0.6413765   0.2160818  )
       101        O      tau( 101) = (   0.1294639   0.5867720   0.3152680  )
       102        O      tau( 102) = (   0.1862988  -0.1139323   0.5243430  )
       103        O      tau( 103) = (   0.5688796   0.2894778   0.2212447  )
       104        O      tau( 104) = (  -0.2516780   0.1870484   0.6208294  )
       105        O      tau( 105) = (   0.4030541   0.3106987   0.1706455  )
       106        O      tau( 106) = (  -0.0866001   0.1590589   0.6656074  )
       107        O      tau( 107) = (   0.4913438   0.4360140   0.1675311  )
       108        O      tau( 108) = (  -0.1794617   0.0376279   0.6740982  )
       109        O      tau( 109) = (   0.0993890  -0.1589238   0.6649654  )
       110        O      tau( 110) = (   0.2108517   0.6334647   0.1732604  )
       111        O      tau( 111) = (   0.1764522  -0.0275475   0.6798930  )
       112        O      tau( 112) = (   0.1396019   0.4982094   0.1621570  )
       113        O      tau( 113) = (   0.3179858   0.3602778   0.3214464  )
       114        O      tau( 114) = (  -0.0088990   0.1071671   0.5136644  )
       115        O      tau( 115) = (   0.4253361   0.5074085   0.3106555  )
       116        O      tau( 116) = (  -0.1126048  -0.0429190   0.5335601  )
       117        O      tau( 117) = (   0.2027800  -0.2528639   0.7688080  )
       118        O      tau( 118) = (   0.1044280   0.7211243   0.0733543  )
       119        O      tau( 119) = (   0.3147181  -0.1084643   0.7667072  )
       120        O      tau( 120) = (  -0.0007768   0.5719196   0.0714544  )
       121        O      tau( 121) = (   0.3112449   0.5873631   0.3079563  )
       122        O      tau( 122) = (   0.0086752  -0.1119165   0.5268601  )
       123        O      tau( 123) = (   0.2033478   0.4407822   0.3220576  )
       124        O      tau( 124) = (   0.1128742   0.0374855   0.5212056  )
       125        O      tau( 125) = (   0.6213576   0.3604365   0.0713368  )
       126        O      tau( 126) = (  -0.3065306   0.1192234   0.7671443  )
       127        O      tau( 127) = (   0.5119709   0.2152885   0.0731665  )
       128        O      tau( 128) = (  -0.1887910   0.2585271   0.7697979  )
       129        O      tau( 129) = (   0.3080306   0.4664638   0.1816965  )
       130        O      tau( 130) = (   0.0055231   0.0069919   0.6558123  )
       131        O      tau( 131) = (   0.4587384   0.3685887   0.0053332  )
       132        O      tau( 132) = (   0.1589203   0.5699072  -0.0000706  )

     --------------------------------------------
     DFT-D3 Dispersion Correction (3-body terms):
     --------------------------------------------
       Reference C6 values for interpolation: 

         atom   Coordination number   C6
         H          0.912             6.05
         H          0.000            15.18
         C          0.000            98.23
         C          0.987            86.49
         C          1.998            58.72
         C          2.999            51.56
         C          3.984            36.41
         N          0.000            50.54
         N          0.994            44.25
         N          2.014            39.35
         N          2.990            31.16
         O          0.000            31.01
         O          0.993            25.63
         O          1.989            20.74
         Ti         0.000          2723.84
         Ti         1.830           604.00
         Ti         3.868           643.18

       Values used:

         atom   Coordination number  R0_AB[au]  C6      C8
         Ti         7.303            3.557    643.18  76289.64
         Ti         7.313            3.557    643.18  76289.64
         Ti         7.301            3.557    643.18  76289.64
         Ti         7.289            3.557    643.18  76289.64
         Ti         7.286            3.557    643.18  76289.64
         Ti         7.264            3.557    643.18  76289.64
         Ti         7.302            3.557    643.18  76289.64
         Ti         7.275            3.557    643.18  76289.64
         H          1.004            2.062      6.18     74.67
         H          1.005            2.062      6.18     74.67
         H          1.005            2.062      6.18     74.66
         H          1.005            2.062      6.18     74.66
         H          1.005            2.062      6.18     74.66
         H          1.005            2.062      6.18     74.67
         H          1.005            2.062      6.18     74.66
         H          1.004            2.062      6.18     74.67
         H          1.004            2.062      6.18     74.67
         H          1.005            2.062      6.18     74.66
         H          1.005            2.062      6.18     74.67
         H          1.004            2.062      6.18     74.67
         H          1.082            2.062      6.12     74.03
         H          1.080            2.062      6.13     74.04
         H          1.084            2.062      6.12     74.02
         H          1.086            2.062      6.12     74.00
         H          1.005            2.062      6.18     74.66
         H          1.005            2.062      6.18     74.67
         H          1.005            2.062      6.18     74.67
         H          1.005            2.062      6.18     74.66
         H          1.004            2.062      6.18     74.68
         H          1.004            2.062      6.18     74.68
         H          1.007            2.062      6.17     74.65
         H          1.014            2.062      6.17     74.57
         H          1.014            2.062      6.17     74.57
         H          1.007            2.062      6.18     74.65
         H          1.007            2.062      6.17     74.65
         H          1.014            2.062      6.17     74.57
         H          1.007            2.062      6.18     74.65
         H          1.014            2.062      6.17     74.57
         H          1.007            2.062      6.18     74.65
         H          1.013            2.062      6.17     74.58
         H          1.007            2.062      6.18     74.65
         H          1.013            2.062      6.17     74.58
         C          3.334            2.750     47.85   1383.97
         C          3.357            2.750     47.34   1369.02
         C          3.332            2.750     47.90   1385.28
         C          3.341            2.750     47.69   1379.41
         C          3.208            2.750     49.97   1445.17
         C          3.187            2.750     50.20   1451.82
         C          3.207            2.750     49.98   1445.37
         C          3.186            2.750     50.20   1451.96
         C          3.163            2.750     50.42   1458.34
         C          3.155            2.750     50.49   1460.36
         C          3.162            2.750     50.43   1458.54
         C          3.155            2.750     50.49   1460.34
         C          3.212            2.750     49.92   1443.68
         C          3.172            2.750     50.34   1455.89
         C          3.173            2.750     50.34   1455.83
         C          3.211            2.750     49.93   1443.97
         C          3.210            2.750     49.94   1444.32
         C          3.188            2.750     50.18   1451.31
         C          3.210            2.750     49.94   1444.31
         C          3.189            2.750     50.18   1451.25
         C          3.189            2.750     50.17   1451.03
         C          3.211            2.750     49.93   1443.93
         C          3.210            2.750     49.94   1444.40
         C          3.189            2.750     50.18   1451.16
         C          3.218            2.750     49.84   1441.54
         C          3.227            2.750     49.73   1438.31
         C          3.221            2.750     49.80   1440.37
         C          3.229            2.750     49.70   1437.48
         C          3.226            2.750     49.75   1438.77
         C          3.223            2.750     49.78   1439.67
         C          3.222            2.750     49.80   1440.28
         C          3.229            2.750     49.71   1437.71
         C          3.164            2.750     50.41   1458.05
         C          3.158            2.750     50.47   1459.67
         C          3.173            2.750     50.33   1455.73
         C          3.210            2.750     49.94   1444.31
         C          3.213            2.750     49.91   1443.47
         C          3.175            2.750     50.31   1455.15
         C          3.174            2.750     50.32   1455.33
         C          3.210            2.750     49.95   1444.51
         C          3.165            2.750     50.40   1457.74
         C          3.157            2.750     50.47   1459.77
         C          3.174            2.750     50.32   1455.48
         C          3.209            2.750     49.96   1444.82
         C          3.164            2.750     50.41   1458.09
         C          3.158            2.750     50.47   1459.69
         C          3.157            2.750     50.48   1459.93
         C          3.164            2.750     50.42   1458.15
         N          3.092            2.478     31.24    689.17
         N          3.092            2.478     31.24    689.16
         N          3.092            2.478     31.24    689.16
         N          3.092            2.478     31.24    689.16
         N          3.092            2.478     31.24    689.16
         N          3.092            2.478     31.24    689.17
         O          2.047            2.345     20.79    419.64
         O          2.041            2.345     20.80    419.70
         O          2.050            2.345     20.79    419.62
         O          2.029            2.345     20.80    419.81
         O          2.046            2.345     20.80    419.66
         O          2.041            2.345     20.80    419.70
         O          2.045            2.345     20.80    419.66
         O          2.046            2.345     20.80    419.66
         O          2.009            2.345     20.81    420.02
         O          2.012            2.345     20.81    419.99
         O          2.011            2.345     20.81    420.00
         O          2.012            2.345     20.81    419.99
         O          2.013            2.345     20.81    419.98
         O          2.012            2.345     20.81    419.98
         O          2.010            2.345     20.81    420.01
         O          2.009            2.345     20.81    420.02
         O          2.033            2.345     20.80    419.77
         O          2.014            2.345     20.81    419.96
         O          2.010            2.345     20.81    420.00
         O          2.028            2.345     20.80    419.82
         O          2.027            2.345     20.80    419.83
         O          2.022            2.345     20.81    419.88
         O          2.010            2.345     20.81    420.01
         O          2.032            2.345     20.80    419.78
         O          2.046            2.345     20.80    419.66
         O          2.031            2.345     20.80    419.79
         O          2.006            2.345     20.82    420.06
         O          2.023            2.345     20.81    419.87
         O          2.036            2.345     20.80    419.75
         O          2.005            2.345     20.82    420.06
         O          2.026            2.345     20.80    419.84
         O          2.041            2.345     20.80    419.70
         O          2.945            2.345     20.74    418.58
         O          2.941            2.345     20.74    418.58
         O          2.943            2.345     20.74    418.58
         O          2.944            2.345     20.74    418.58

         Molecular C6 ( Ry / a.u.^6 ) =    660547.30


   Crystallographic axes

     site n.     atom                  positions (cryst. coord.)
         1        Ti     tau(   1) = (  0.2963677  0.5789956  0.8604291  )
         2        Ti     tau(   2) = (  0.7119048  0.4264191  0.1378178  )
         3        Ti     tau(   3) = (  0.4284205  0.2920969  0.7175093  )
         4        Ti     tau(   4) = (  0.5776552  0.7145975  0.2797172  )
         5        Ti     tau(   5) = (  0.4248900  0.7021734  0.1345206  )
         6        Ti     tau(   6) = (  0.5646198  0.2894524  0.8635826  )
         7        Ti     tau(   7) = (  0.2853342  0.4246636  0.7178278  )
         8        Ti     tau(   8) = (  0.7016124  0.5654887  0.2760573  )
         9        H      tau(   9) = (  0.5344507  0.3763595  0.5313103  )
        10        H      tau(  10) = (  0.1710919  0.0107600  0.5506262  )
        11        H      tau(  11) = (  0.8343800  0.9851193  0.4473760  )
        12        H      tau(  12) = (  0.3919177  0.8378993  0.8473102  )
        13        H      tau(  13) = (  0.6116171  0.1671825  0.1598623  )
        14        H      tau(  14) = (  0.0102152  0.4634480  0.8375384  )
        15        H      tau(  15) = (  0.9863398  0.5327189  0.1502293  )
        16        H      tau(  16) = (  0.4582772  0.0008798  0.8407413  )
        17        H      tau(  17) = (  0.1568074  0.6204153  0.1567435  )
        18        H      tau(  18) = (  0.6141009  0.4629761  0.4476680  )
        19        H      tau(  19) = (  0.3794041  0.5403426  0.5528490  )
        20        H      tau(  20) = ( -0.0034623  0.1557672  0.5425874  )
        21        H      tau(  21) = (  0.3778399  0.5395268 -0.0079266  )
        22        H      tau(  22) = (  0.6162282  0.4562852  0.0034087  )
        23        H      tau(  23) = (  0.4575520  0.4606461  0.8318045  )
        24        H      tau(  24) = (  0.5365262  0.5420853  0.1622015  )
        25        H      tau(  25) = (  0.3973548  0.0744341  0.4583565  )
        26        H      tau(  26) = (  0.6026346  0.9215763  0.5414041  )
        27        H      tau(  27) = (  0.0670990  0.6123258  0.6817184  )
        28        H      tau(  28) = (  0.9321561  0.3903794  0.3224824  )
        29        H      tau(  29) = (  0.0650078  0.3880419  0.4499287  )
        30        H      tau(  30) = (  0.3879340  0.9370554  0.3217229  )
        31        H      tau(  31) = (  0.4039245  0.6554682  0.4888275  )
        32        H      tau(  32) = (  0.4844141  0.6775857  0.4340951  )
        33        H      tau(  33) = (  0.5250346  0.9440985  0.1921533  )
        34        H      tau(  34) = (  0.5981467  0.0770965  0.2503313  )
        35        H      tau(  35) = (  0.8300065  0.3509029  0.7472476  )
        36        H      tau(  36) = (  0.7532948  0.3272642  0.8056925  )
        37        H      tau(  37) = (  1.0834258  0.8312482  0.4692145  )
        38        H      tau(  38) = (  0.9493264  0.7543876  0.4107729  )
        39        H      tau(  39) = (  0.9564693  0.6721036  0.6385736  )
        40        H      tau(  40) = (  0.8730595  0.6296490  0.5145058  )
        41        H      tau(  41) = (  0.6663028  0.0288908  0.7117508  )
        42        H      tau(  42) = (  0.6305739  0.1169065  0.7544760  )
        43        C      tau(  43) = (  0.8463423  0.4991366  0.3493393  )
        44        C      tau(  44) = (  0.1524083  0.5016115  0.6510442  )
        45        C      tau(  45) = (  0.5050182  0.1564635  0.6521097  )
        46        C      tau(  46) = (  0.4926890  0.8410582  0.3457084  )
        47        C      tau(  47) = (  0.9235591  0.5014580  0.4288094  )
        48        C      tau(  48) = (  0.0731462  0.5009449  0.5732308  )
        49        C      tau(  49) = (  0.5043330  0.0758495  0.5765109  )
        50        C      tau(  50) = (  0.4955056  0.9220229  0.4250215  )
        51        C      tau(  51) = (  0.9607397  0.5656163  0.5321203  )
        52        C      tau(  52) = (  0.0356449  0.4369239  0.4715514  )
        53        C      tau(  53) = (  0.5639672  0.0325427  0.6024631  )
        54        C      tau(  54) = (  0.4364163  0.9643148  0.3996325  )
        55        C      tau(  55) = (  0.5576000  0.9555218  0.5240533  )
        56        C      tau(  56) = (  0.4419013  0.0400112  0.4752681  )
        57        C      tau(  57) = (  0.9622617  0.4385223  0.4016014  )
        58        C      tau(  58) = (  0.0365480  0.5636978  0.6025000  )
        59        C      tau(  59) = (  0.5443553  0.5520725  0.4547641  )
        60        C      tau(  60) = (  0.4521536  0.4541323  0.5460609  )
        61        C      tau(  61) = (  0.9103681  0.9019034  0.4456536  )
        62        C      tau(  62) = (  0.0925610  0.0915688  0.5512799  )
        63        C      tau(  63) = (  0.5395457  0.0926969  0.0010077  )
        64        C      tau(  64) = (  0.4624947  0.9098412  0.0061345  )
        65        C      tau(  65) = (  0.9020947  0.4484799 -0.0086241  )
        66        C      tau(  66) = (  0.0916589  0.5463358 -0.0035216  )
        67        C      tau(  67) = (  0.5916843  0.5973290  0.4024739  )
        68        C      tau(  68) = (  0.4041031  0.4036525  0.5962152  )
        69        C      tau(  69) = (  0.8124077  0.8046010  0.3885904  )
        70        C      tau(  70) = (  0.1899177  0.1920753  0.6092414  )
        71        C      tau(  71) = (  0.5805957  0.1907808 -0.0001061  )
        72        C      tau(  72) = (  0.4212151  0.8110474  0.0033006  )
        73        C      tau(  73) = (  0.8049475  0.4016798 -0.0057904  )
        74        C      tau(  74) = (  0.1925768  0.5955231 -0.0015633  )
        75        C      tau(  75) = (  0.4774213  0.5761915  0.4850010  )
        76        C      tau(  76) = (  0.5192293  0.4316117  0.5176022  )
        77        C      tau(  77) = (  0.9089111  0.9921318  0.4708428  )
        78        C      tau(  78) = (  0.0966546  0.0041400  0.5273643  )
        79        C      tau(  79) = (  0.5632650  0.0942117  0.0918167  )
        80        C      tau(  80) = (  0.4399828  0.9108980  0.9151671  )
        81        C      tau(  81) = (  0.9928624  0.5182501  0.0822836  )
        82        C      tau(  82) = (  0.0036693  0.4782153  0.9056307  )
        83        C      tau(  83) = (  1.0065544  0.9072574  0.4745126  )
        84        C      tau(  84) = ( -0.0021458  0.0862209  0.5230326  )
        85        C      tau(  85) = (  0.5633656  0.4800595  0.4721395  )
        86        C      tau(  86) = (  0.4316665  0.5246119  0.5298883  )
        87        C      tau(  87) = (  0.9068803  0.4270813  0.9000116  )
        88        C      tau(  88) = (  0.0868961  0.5669989  0.0863020  )
        89        C      tau(  89) = (  0.4767367  0.0002604  0.9111129  )
        90        C      tau(  90) = (  0.5253116  1.0037247  0.0975201  )
        91        N      tau(  91) = (  0.4577569  0.6470031  0.4735076  )
        92        N      tau(  92) = (  0.5489383  1.0092082  0.1880689  )
        93        N      tau(  93) = (  0.8232959  0.3592721  0.8093895  )
        94        N      tau(  94) = (  1.0144408  0.8239145  0.4541292  )
        95        N      tau(  95) = (  0.9263941  0.6271105  0.5649024  )
        96        N      tau(  96) = (  0.6255199  0.0616504  0.6978156  )
        97        O      tau(  97) = (  0.8133544  0.5588657  0.3738707  )
        98        O      tau(  98) = (  0.1785255  0.4372669  0.6231166  )
        99        O      tau(  99) = (  0.5634939  0.1905259  0.7445952  )
       100        O      tau( 100) = (  0.4324342  0.8079806  0.2553519  )
       101        O      tau( 101) = (  0.5517319  0.8090117  0.3731500  )
       102        O      tau( 102) = (  0.4485566  0.1905147  0.6241897  )
       103        O      tau( 103) = (  0.8147799  0.4383431  0.2584770  )
       104        O      tau( 104) = (  0.1898829  0.5665527  0.7417773  )
       105        O      tau( 105) = (  0.6280995  0.4307292  0.1993751  )
       106        O      tau( 106) = (  0.3696572  0.5635384  0.7939639  )
       107        O      tau( 107) = (  0.7649690  0.5617289  0.1945807  )
       108        O      tau( 108) = (  0.2329595  0.4398437  0.8051940  )
       109        O      tau( 109) = (  0.4264506  0.2262469  0.7927117  )
       110        O      tau( 110) = (  0.5681995  0.7742579  0.2030143  )
       111        O      tau( 111) = (  0.5651867  0.3743721  0.8095030  )
       112        O      tau( 112) = (  0.4359488  0.6242939  0.1907496  )
       113        O      tau( 113) = (  0.6520135  0.5727276  0.3797303  )
       114        O      tau( 114) = (  0.3367859  0.4184078  0.6123118  )
       115        O      tau( 115) = (  0.8121924  0.7223002  0.3655640  )
       116        O      tau( 116) = (  0.1844098  0.2711081  0.6373164  )
       117        O      tau( 117) = (  0.5528106  0.1883630  0.9160242  )
       118        O      tau( 118) = (  0.4385946  0.8078205  0.0844394  )
       119        O      tau( 119) = (  0.7215802  0.3402005  0.9121937  )
       120        O      tau( 120) = (  0.2722479  0.6485195  0.0834607  )
       121        O      tau( 121) = (  0.7290498  0.8053816  0.3629975  )
       122        O      tau( 122) = (  0.2736171  0.1940642  0.6285837  )
       123        O      tau( 123) = (  0.5704960  0.6583561  0.3811142  )
       124        O      tau( 124) = (  0.4345927  0.3490906  0.6205607  )
       125        O      tau( 125) = (  0.8075495  0.4246046  0.0790728  )
       126        O      tau( 126) = (  0.1938943  0.5814789  0.9169058  )
       127        O      tau( 127) = (  0.6408640  0.2718144  0.0825623  )
       128        O      tau( 128) = (  0.3691937  0.7307399  0.9187150  )
       129        O      tau( 129) = (  0.6026921  0.6023226  0.2128232  )
       130        O      tau( 130) = (  0.3944034  0.3966081  0.7820250  )
       131        O      tau( 131) = (  0.6097225  0.3940001  0.0016153  )
       132        O      tau( 132) = (  0.3886773  0.6040125 -0.0030876  )

     number of k points=     1  Gaussian smearing, width (Ry)=  0.0500
                       cart. coord. in units 2pi/alat
        k(    1) = (   0.0000000   0.0000000   0.0000000), wk =   2.0000000

                       cryst. coord.
        k(    1) = (   0.0000000   0.0000000   0.0000000), wk =   2.0000000

     Dense  grid:  6013149 G-vectors     FFT dimensions: ( 250, 250, 250)

     Smooth grid:  2126099 G-vectors     FFT dimensions: ( 180, 180, 180)

     Dynamical RAM for                 wfc:      44.60 MB

     Dynamical RAM for     wfc (w. buffer):      44.60 MB

     Dynamical RAM for           str. fact:      14.80 MB

     Dynamical RAM for           local pot:       0.00 MB

     Dynamical RAM for          nlocal pot:     121.90 MB

     Dynamical RAM for                qrad:      10.15 MB

     Dynamical RAM for          rho,v,vnew:      21.75 MB

     Dynamical RAM for               rhoin:       7.25 MB

     Dynamical RAM for            rho*nmix:      47.36 MB

     Dynamical RAM for           G-vectors:      11.62 MB

     Dynamical RAM for          h,s,v(r/c):       2.36 MB

     Dynamical RAM for          <psi|beta>:       4.85 MB

     Dynamical RAM for                 psi:      89.20 MB

     Dynamical RAM for                hpsi:      89.20 MB

     Dynamical RAM for                spsi:      89.20 MB

     Dynamical RAM for      wfcinit/wfcrot:     129.14 MB

     Dynamical RAM for           addusdens:     692.59 MB

     Estimated static dynamical RAM per process >     271.30 MB

     Estimated max dynamical RAM per process >    1011.24 MB

     Estimated total dynamical RAM >      30.61 GB

     Initial potential from superposition of free atoms

     starting charge     559.9972, renormalised to     568.0000

     negative rho (up, down):  1.104E-02 0.000E+00
[ga00:2909371] 30 more processes have sent help message help-mpi-btl-openib.txt / error in device init
[ga00:2909371] Set MCA parameter "orte_base_help_aggregate" to 0 to see all help / error messages
     Starting wfcs are  474 randomized atomic wfcs
     Checking if some PAW data can be deallocated... 
       PAW data deallocated on   18 nodes for type:  3
       PAW data deallocated on   22 nodes for type:  5

     total cpu time spent up to now is       25.7 secs

     Self-consistent Calculation

     iteration #  1     ecut=    80.00 Ry     beta= 0.20
     Davidson diagonalization with overlap

---- Real-time Memory Report at c_bands before calling an iterative solver
           851 MiB given to the printing process from OS
             0 MiB allocation reported by mallinfo(arena+hblkhd)
         21712 MiB available memory on the node where the printing process lives
------------------
     ethr =  1.00E-02,  avg # of iterations =  3.0

     negative rho (up, down):  3.626E-03 0.000E+00

     total cpu time spent up to now is       85.0 secs

     total energy              =   -3455.17882944 Ry
     estimated scf accuracy    <     177.13655319 Ry

     iteration #  2     ecut=    80.00 Ry     beta= 0.20
     Davidson diagonalization with overlap

---- Real-time Memory Report at c_bands before calling an iterative solver
          1032 MiB given to the printing process from OS
             0 MiB allocation reported by mallinfo(arena+hblkhd)
         27108 MiB available memory on the node where the printing process lives
------------------
     ethr =  1.00E-02,  avg # of iterations =  6.0

     negative rho (up, down):  4.631E-03 0.000E+00

     total cpu time spent up to now is      148.8 secs

     total energy              =   -3486.38326310 Ry
     estimated scf accuracy    <     220.93326369 Ry

     iteration #  3     ecut=    80.00 Ry     beta= 0.20
     Davidson diagonalization with overlap

---- Real-time Memory Report at c_bands before calling an iterative solver
          1036 MiB given to the printing process from OS
             0 MiB allocation reported by mallinfo(arena+hblkhd)
         27105 MiB available memory on the node where the printing process lives
------------------
     ethr =  1.00E-02,  avg # of iterations =  5.0

     negative rho (up, down):  5.671E-03 0.000E+00

     total cpu time spent up to now is      195.7 secs

     total energy              =   -3506.19646508 Ry
     estimated scf accuracy    <      18.08499031 Ry

     iteration #  4     ecut=    80.00 Ry     beta= 0.20
     Davidson diagonalization with overlap

---- Real-time Memory Report at c_bands before calling an iterative solver
          1039 MiB given to the printing process from OS
             0 MiB allocation reported by mallinfo(arena+hblkhd)
         27456 MiB available memory on the node where the printing process lives
------------------
     ethr =  3.18E-03,  avg # of iterations =  2.0

     negative rho (up, down):  1.102E-02 0.000E+00

     total cpu time spent up to now is      241.3 secs

     total energy              =   -3500.22746139 Ry
     estimated scf accuracy    <      11.66153636 Ry

     iteration #  5     ecut=    80.00 Ry     beta= 0.20
     Davidson diagonalization with overlap

---- Real-time Memory Report at c_bands before calling an iterative solver
          1041 MiB given to the printing process from OS
             0 MiB allocation reported by mallinfo(arena+hblkhd)
         27352 MiB available memory on the node where the printing process lives
------------------
     ethr =  2.05E-03,  avg # of iterations =  8.0

     negative rho (up, down):  9.975E-03 0.000E+00

     total cpu time spent up to now is      318.0 secs

     total energy              =   -3504.18748563 Ry
     estimated scf accuracy    <      28.72668632 Ry

     iteration #  6     ecut=    80.00 Ry     beta= 0.20
     Davidson diagonalization with overlap

---- Real-time Memory Report at c_bands before calling an iterative solver
          1044 MiB given to the printing process from OS
             0 MiB allocation reported by mallinfo(arena+hblkhd)
         27236 MiB available memory on the node where the printing process lives
------------------
     ethr =  2.05E-03,  avg # of iterations =  2.0

     negative rho (up, down):  9.673E-03 0.000E+00

     total cpu time spent up to now is      361.7 secs

     total energy              =   -3503.81972646 Ry
     estimated scf accuracy    <       9.12229495 Ry

     iteration #  7     ecut=    80.00 Ry     beta= 0.20
     Davidson diagonalization with overlap

---- Real-time Memory Report at c_bands before calling an iterative solver
          1046 MiB given to the printing process from OS
             0 MiB allocation reported by mallinfo(arena+hblkhd)
         27131 MiB available memory on the node where the printing process lives
------------------
     ethr =  1.61E-03,  avg # of iterations =  3.0

     negative rho (up, down):  9.365E-03 0.000E+00

     total cpu time spent up to now is      409.2 secs

     total energy              =   -3503.24732918 Ry
     estimated scf accuracy    <       2.82685518 Ry

     iteration #  8     ecut=    80.00 Ry     beta= 0.20
     Davidson diagonalization with overlap

---- Real-time Memory Report at c_bands before calling an iterative solver
          1049 MiB given to the printing process from OS
             0 MiB allocation reported by mallinfo(arena+hblkhd)
         27022 MiB available memory on the node where the printing process lives
------------------
     ethr =  4.98E-04,  avg # of iterations =  4.0

     negative rho (up, down):  9.762E-03 0.000E+00

     total cpu time spent up to now is      459.4 secs

     total energy              =   -3503.78801497 Ry
     estimated scf accuracy    <       0.37991805 Ry

     iteration #  9     ecut=    80.00 Ry     beta= 0.20
     Davidson diagonalization with overlap

---- Real-time Memory Report at c_bands before calling an iterative solver
          1057 MiB given to the printing process from OS
             0 MiB allocation reported by mallinfo(arena+hblkhd)
         27028 MiB available memory on the node where the printing process lives
------------------
     ethr =  6.69E-05,  avg # of iterations = 13.0

     negative rho (up, down):  9.716E-03 0.000E+00

     total cpu time spent up to now is      510.3 secs

     total energy              =   -3503.78426105 Ry
     estimated scf accuracy    <       0.25712311 Ry

     iteration # 10     ecut=    80.00 Ry     beta= 0.20
     Davidson diagonalization with overlap

---- Real-time Memory Report at c_bands before calling an iterative solver
          1060 MiB given to the printing process from OS
             0 MiB allocation reported by mallinfo(arena+hblkhd)
         26911 MiB available memory on the node where the printing process lives
------------------
     ethr =  4.53E-05,  avg # of iterations = 19.0

     negative rho (up, down):  9.817E-03 0.000E+00

     total cpu time spent up to now is      561.1 secs

     total energy              =   -3503.78090339 Ry
     estimated scf accuracy    <       0.16977336 Ry

     iteration # 11     ecut=    80.00 Ry     beta= 0.20
     Davidson diagonalization with overlap

---- Real-time Memory Report at c_bands before calling an iterative solver
          1061 MiB given to the printing process from OS
             0 MiB allocation reported by mallinfo(arena+hblkhd)
         26924 MiB available memory on the node where the printing process lives
------------------
     ethr =  2.99E-05,  avg # of iterations =  2.0

     negative rho (up, down):  1.009E-02 0.000E+00

     total cpu time spent up to now is      607.3 secs

     total energy              =   -3503.76525781 Ry
     estimated scf accuracy    <       0.09708588 Ry

     iteration # 12     ecut=    80.00 Ry     beta= 0.20
     Davidson diagonalization with overlap

---- Real-time Memory Report at c_bands before calling an iterative solver
          1061 MiB given to the printing process from OS
             0 MiB allocation reported by mallinfo(arena+hblkhd)
         26924 MiB available memory on the node where the printing process lives
------------------
     ethr =  1.71E-05,  avg # of iterations = 11.0

     negative rho (up, down):  1.022E-02 0.000E+00

     total cpu time spent up to now is      656.4 secs

     total energy              =   -3503.76806025 Ry
     estimated scf accuracy    <       0.02014656 Ry

     iteration # 13     ecut=    80.00 Ry     beta= 0.20
     Davidson diagonalization with overlap

---- Real-time Memory Report at c_bands before calling an iterative solver
          1061 MiB given to the printing process from OS
             0 MiB allocation reported by mallinfo(arena+hblkhd)
         26925 MiB available memory on the node where the printing process lives
------------------
     ethr =  3.55E-06,  avg # of iterations = 14.0

     negative rho (up, down):  1.032E-02 0.000E+00

     total cpu time spent up to now is      709.5 secs

     total energy              =   -3503.76862879 Ry
     estimated scf accuracy    <       0.00430326 Ry

     iteration # 14     ecut=    80.00 Ry     beta= 0.20
     Davidson diagonalization with overlap

---- Real-time Memory Report at c_bands before calling an iterative solver
          1061 MiB given to the printing process from OS
             0 MiB allocation reported by mallinfo(arena+hblkhd)
         26985 MiB available memory on the node where the printing process lives
------------------
     ethr =  7.58E-07,  avg # of iterations =  3.0

     negative rho (up, down):  1.040E-02 0.000E+00

     total cpu time spent up to now is      756.3 secs

     total energy              =   -3503.76872491 Ry
     estimated scf accuracy    <       0.00097890 Ry

     iteration # 15     ecut=    80.00 Ry     beta= 0.20
     Davidson diagonalization with overlap

---- Real-time Memory Report at c_bands before calling an iterative solver
          1061 MiB given to the printing process from OS
             0 MiB allocation reported by mallinfo(arena+hblkhd)
         26984 MiB available memory on the node where the printing process lives
------------------
     ethr =  1.72E-07,  avg # of iterations =  4.0

     negative rho (up, down):  1.043E-02 0.000E+00

     total cpu time spent up to now is      803.6 secs

     total energy              =   -3503.76885050 Ry
     estimated scf accuracy    <       0.00009952 Ry

     iteration # 16     ecut=    80.00 Ry     beta= 0.20
     Davidson diagonalization with overlap

---- Real-time Memory Report at c_bands before calling an iterative solver
          1061 MiB given to the printing process from OS
             0 MiB allocation reported by mallinfo(arena+hblkhd)
         26984 MiB available memory on the node where the printing process lives
------------------
     ethr =  1.75E-08,  avg # of iterations =  5.0

     negative rho (up, down):  1.045E-02 0.000E+00

     total cpu time spent up to now is      855.8 secs

     total energy              =   -3503.76886311 Ry
     estimated scf accuracy    <       0.00002170 Ry

     iteration # 17     ecut=    80.00 Ry     beta= 0.20
     Davidson diagonalization with overlap

---- Real-time Memory Report at c_bands before calling an iterative solver
          1061 MiB given to the printing process from OS
             0 MiB allocation reported by mallinfo(arena+hblkhd)
         26980 MiB available memory on the node where the printing process lives
------------------
     ethr =  3.82E-09,  avg # of iterations =  4.0

     negative rho (up, down):  1.045E-02 0.000E+00

     total cpu time spent up to now is      908.4 secs

     total energy              =   -3503.76886514 Ry
     estimated scf accuracy    <       0.00000560 Ry

     iteration # 18     ecut=    80.00 Ry     beta= 0.20
     Davidson diagonalization with overlap

---- Real-time Memory Report at c_bands before calling an iterative solver
          1061 MiB given to the printing process from OS
             0 MiB allocation reported by mallinfo(arena+hblkhd)
         26896 MiB available memory on the node where the printing process lives
------------------
     ethr =  9.85E-10,  avg # of iterations =  4.0

     negative rho (up, down):  1.046E-02 0.000E+00

     total cpu time spent up to now is      957.6 secs

     total energy              =   -3503.76886563 Ry
     estimated scf accuracy    <       0.00000177 Ry

     iteration # 19     ecut=    80.00 Ry     beta= 0.20
     Davidson diagonalization with overlap

---- Real-time Memory Report at c_bands before calling an iterative solver
          1061 MiB given to the printing process from OS
             0 MiB allocation reported by mallinfo(arena+hblkhd)
         26896 MiB available memory on the node where the printing process lives
------------------
     ethr =  3.11E-10,  avg # of iterations =  2.0

     negative rho (up, down):  1.046E-02 0.000E+00

     total cpu time spent up to now is     1005.1 secs

     total energy              =   -3503.76886590 Ry
     estimated scf accuracy    <       0.00000043 Ry

     iteration # 20     ecut=    80.00 Ry     beta= 0.20
     Davidson diagonalization with overlap

---- Real-time Memory Report at c_bands before calling an iterative solver
          1062 MiB given to the printing process from OS
             0 MiB allocation reported by mallinfo(arena+hblkhd)
         26917 MiB available memory on the node where the printing process lives
------------------
     ethr =  7.52E-11,  avg # of iterations =  5.0

     negative rho (up, down):  1.046E-02 0.000E+00

     total cpu time spent up to now is     1049.3 secs

     total energy              =   -3503.76886598 Ry
     estimated scf accuracy    <       0.00000013 Ry

     iteration # 21     ecut=    80.00 Ry     beta= 0.20
     Davidson diagonalization with overlap

---- Real-time Memory Report at c_bands before calling an iterative solver
          1064 MiB given to the printing process from OS
             0 MiB allocation reported by mallinfo(arena+hblkhd)
         26922 MiB available memory on the node where the printing process lives
------------------
     ethr =  2.28E-11,  avg # of iterations =  4.0

     negative rho (up, down):  1.046E-02 0.000E+00

     total cpu time spent up to now is     1092.5 secs

     total energy              =   -3503.76886601 Ry
     estimated scf accuracy    <       0.00000003 Ry

     iteration # 22     ecut=    80.00 Ry     beta= 0.20
     Davidson diagonalization with overlap

---- Real-time Memory Report at c_bands before calling an iterative solver
          1064 MiB given to the printing process from OS
             0 MiB allocation reported by mallinfo(arena+hblkhd)
         26935 MiB available memory on the node where the printing process lives
------------------
     ethr =  5.86E-12,  avg # of iterations =  4.0

     negative rho (up, down):  1.046E-02 0.000E+00

     total cpu time spent up to now is     1143.9 secs

     End of self-consistent calculation

          k = 0.0000 0.0000 0.0000 (265753 PWs)   bands (ev):

   -59.3318 -59.3293 -59.3154 -59.3039 -59.2762 -59.2652 -59.2486 -59.2374
   -35.8772 -35.8759 -35.8571 -35.8557 -35.6274 -35.6214 -35.6102 -35.6067
   -35.6042 -35.5942 -35.5938 -35.5780 -35.5627 -35.5498 -35.5302 -35.5269
   -35.5101 -35.4962 -35.4733 -35.4698 -35.4032 -35.3930 -35.3741 -35.3708
   -24.1217 -24.0601 -24.0444 -24.0387 -23.8928 -23.8535 -23.8419 -23.8286
   -23.7458 -23.7245 -23.7174 -23.6839 -21.8071 -21.7388 -21.7313 -21.7240
   -21.5584 -21.5334 -21.5176 -21.4963 -21.4490 -21.4336 -21.4282 -21.4047
   -21.3652 -21.3239 -21.2944 -21.2523 -20.2220 -20.1872 -20.0725 -20.0505
   -20.0451 -20.0189 -19.1518 -19.1430 -19.1051 -19.1029 -18.9334 -18.9207
   -18.9063 -18.8998 -18.0767 -18.0254 -17.8935 -17.8736 -17.8524 -17.8338
   -16.1568 -16.1085 -15.9606 -15.9273 -15.8942 -15.8728 -15.1577 -15.1069
   -14.9819 -14.9630 -14.9439 -14.9244 -13.5440 -13.4962 -13.3437 -13.3088
   -13.2404 -13.2175 -12.1836 -12.1371 -12.0103 -11.9874 -11.9728 -11.9499
   -11.4601 -11.4128 -11.1892 -11.1639 -11.1355 -11.0792 -11.0604 -11.0450
   -10.9315 -10.8900 -10.8664 -10.8302 -10.1369 -10.1008  -9.9774  -9.9623
    -9.9479  -9.9259  -9.7244  -9.6856  -9.5664  -9.5081  -9.4576  -9.3722
    -9.3482  -9.2945  -9.2408  -9.1828  -9.1482  -9.1068  -9.0612  -9.0198
    -9.0035  -8.9717  -8.9288  -8.9064  -8.8931  -8.8579  -8.8195  -8.7999
    -8.7750  -8.7071  -8.6785  -8.5870  -8.5858  -8.5266  -8.4574  -8.4229
    -8.2832  -8.2675  -8.2498  -8.2450  -8.0908  -8.0243  -7.9653  -7.9486
    -7.9346  -7.9077  -7.8424  -7.8335  -7.7781  -7.7660  -7.6385  -7.6234
    -7.4824  -7.4405  -7.3705  -7.3348  -7.3144  -7.3096  -7.2722  -7.2550
    -7.1990  -7.1675  -7.1470  -7.1287  -6.8163  -6.7452  -6.5293  -6.4917
    -6.4751  -6.4568  -6.4336  -6.4114  -6.3948  -6.3506  -6.3336  -6.3174
    -6.2983  -6.2600  -6.2379  -6.1568  -6.0359  -5.9935  -5.9717  -5.8846
    -5.7778  -5.7327  -5.6956  -5.6877  -5.6518  -5.6328  -5.5664  -5.5368
    -5.4680  -5.4261  -5.3773  -5.3457  -5.3253  -5.3014  -5.2961  -5.2922
    -5.2664  -5.2448  -5.2105  -5.1641  -5.0574  -5.0090  -4.9442  -4.8875
    -4.7778  -4.7412  -4.7329  -4.6926  -4.6683  -4.6613  -4.6331  -4.6228
    -4.6015  -4.5764  -4.4972  -4.4850  -4.4478  -4.4196  -4.3676  -4.3116
    -4.2803  -4.2557  -4.2375  -4.2167  -4.1990  -4.1730  -4.1505  -4.1022
    -4.0928  -4.0824  -4.0743  -4.0631  -4.0041  -3.9678  -3.9660  -3.9541
    -3.9381  -3.9171  -3.8514  -3.7975  -3.7537  -3.7030  -3.6879  -3.6516
    -3.6053  -3.5281  -3.5209  -3.4826  -3.4437  -3.4337  -3.4153  -3.4081
    -3.3795  -3.3658  -3.2995  -3.2786  -3.2552  -3.2356  -2.1437  -2.0979
    -1.9704  -1.9410  -1.9355  -1.9270  -0.1871  -0.1481  -0.0285   0.0071
     0.0563   0.0780   0.1515   0.1582   0.1847   0.2395   0.3182   0.3530
     0.3874   0.4143   0.5148   0.5368   0.5793   0.6379   0.6520   0.6734
     0.7760   0.8328   0.8714   0.8900   0.9053   1.0223   1.0444   1.1840
     1.2063   1.2220   1.9889   2.0565   2.0995   2.1776   2.1845   2.2427
     2.2553   2.2635   2.2708   2.2878   2.3257   2.3597   2.3762   2.4147
     2.4669   2.6170   2.6532   2.6869   2.7301   2.8496   2.9071   2.9591
     2.9964   3.0056   3.0552   3.1083   3.1262

     occupation numbers 
     1.0000   1.0000   1.0000   1.0000   1.0000   1.0000   1.0000   1.0000
     1.0000   1.0000   1.0000   1.0000   1.0000   1.0000   1.0000   1.0000
     1.0000   1.0000   1.0000   1.0000   1.0000   1.0000   1.0000   1.0000
     1.0000   1.0000   1.0000   1.0000   1.0000   1.0000   1.0000   1.0000
     1.0000   1.0000   1.0000   1.0000   1.0000   1.0000   1.0000   1.0000
     1.0000   1.0000   1.0000   1.0000   1.0000   1.0000   1.0000   1.0000
     1.0000   1.0000   1.0000   1.0000   1.0000   1.0000   1.0000   1.0000
     1.0000   1.0000   1.0000   1.0000   1.0000   1.0000   1.0000   1.0000
     1.0000   1.0000   1.0000   1.0000   1.0000   1.0000   1.0000   1.0000
     1.0000   1.0000   1.0000   1.0000   1.0000   1.0000   1.0000   1.0000
     1.0000   1.0000   1.0000   1.0000   1.0000   1.0000   1.0000   1.0000
     1.0000   1.0000   1.0000   1.0000   1.0000   1.0000   1.0000   1.0000
     1.0000   1.0000   1.0000   1.0000   1.0000   1.0000   1.0000   1.0000
     1.0000   1.0000   1.0000   1.0000   1.0000   1.0000   1.0000   1.0000
     1.0000   1.0000   1.0000   1.0000   1.0000   1.0000   1.0000   1.0000
     1.0000   1.0000   1.0000   1.0000   1.0000   1.0000   1.0000   1.0000
     1.0000   1.0000   1.0000   1.0000   1.0000   1.0000   1.0000   1.0000
     1.0000   1.0000   1.0000   1.0000   1.0000   1.0000   1.0000   1.0000
     1.0000   1.0000   1.0000   1.0000   1.0000   1.0000   1.0000   1.0000
     1.0000   1.0000   1.0000   1.0000   1.0000   1.0000   1.0000   1.0000
     1.0000   1.0000   1.0000   1.0000   1.0000   1.0000   1.0000   1.0000
     1.0000   1.0000   1.0000   1.0000   1.0000   1.0000   1.0000   1.0000
     1.0000   1.0000   1.0000   1.0000   1.0000   1.0000   1.0000   1.0000
     1.0000   1.0000   1.0000   1.0000   1.0000   1.0000   1.0000   1.0000
     1.0000   1.0000   1.0000   1.0000   1.0000   1.0000   1.0000   1.0000
     1.0000   1.0000   1.0000   1.0000   1.0000   1.0000   1.0000   1.0000
     1.0000   1.0000   1.0000   1.0000   1.0000   1.0000   1.0000   1.0000
     1.0000   1.0000   1.0000   1.0000   1.0000   1.0000   1.0000   1.0000
     1.0000   1.0000   1.0000   1.0000   1.0000   1.0000   1.0000   1.0000
     1.0000   1.0000   1.0000   1.0000   1.0000   1.0000   1.0000   1.0000
     1.0000   1.0000   1.0000   1.0000   1.0000   1.0000   1.0000   1.0000
     1.0000   1.0000   1.0000   1.0000   1.0000   1.0000   1.0000   1.0000
     1.0000   1.0000   1.0000   1.0000   1.0000   1.0000   1.0000   1.0000
     1.0000   1.0000   1.0000   1.0000   1.0000   1.0000   1.0000   1.0000
     1.0000   1.0000   1.0000   1.0000   1.0000   1.0000   0.9887   0.9856
     0.9726   0.9685   0.9677   0.9664   0.0370   0.0309   0.0172   0.0143
     0.0109   0.0097   0.0064   0.0061   0.0052   0.0038   0.0023   0.0018
     0.0014   0.0012   0.0006   0.0005   0.0004   0.0002   0.0002   0.0002
     0.0001   0.0000   0.0000   0.0000   0.0000   0.0000   0.0000   0.0000
     0.0000   0.0000   0.0000   0.0000   0.0000   0.0000   0.0000   0.0000
     0.0000   0.0000   0.0000   0.0000   0.0000   0.0000   0.0000   0.0000
     0.0000   0.0000   0.0000   0.0000   0.0000   0.0000   0.0000   0.0000
     0.0000   0.0000   0.0000   0.0000   0.0000

     the Fermi energy is    -1.0465 ev

!    total energy              =   -3503.76886610 Ry
     estimated scf accuracy    <          9.0E-09 Ry
     smearing contrib. (-TS)   =      -0.05111736 Ry
     internal energy E=F+TS    =   -3503.71774874 Ry

     The total energy is F=E-TS. E is the sum of the following terms:
     one-electron contribution =   -8377.38715024 Ry
     hartree contribution      =    4303.98169867 Ry
     xc contribution           =    -690.14303766 Ry
     ewald contribution        =    1898.67339635 Ry
     DFT-D3 Dispersion         =      -0.33442824 Ry
     one-center paw contrib.   =    -638.50822761 Ry
      -> PAW hartree energy AE =       0.00000000 Ry
      -> PAW hartree energy PS =       0.00000000 Ry
      -> PAW xc energy AE      =       0.00000000 Ry
      -> PAW xc energy PS      =       0.00000000 Ry
      -> total E_H with PAW    =    4303.98169867 Ry
      -> total E_XC with PAW   =    -690.14303766 Ry

     convergence has been achieved in  22 iterations

     Writing all to output data dir ./tmp/MIL125_NH2_opt.save/ :
     XML data file, charge density, pseudopotentials, collected wavefunctions

     init_run     :     24.63s CPU     25.49s WALL (       1 calls)
     electrons    :   1086.93s CPU   1118.67s WALL (       1 calls)

     Called by init_run:
     wfcinit      :     16.56s CPU     16.74s WALL (       1 calls)
     wfcinit:atom :      0.03s CPU      0.06s WALL (       1 calls)
     wfcinit:wfcr :     16.29s CPU     16.41s WALL (       1 calls)
     potinit      :      1.36s CPU      1.44s WALL (       1 calls)
     hinit0       :      0.58s CPU      0.62s WALL (       1 calls)

     Called by electrons:
     c_bands      :    841.41s CPU    846.83s WALL (      22 calls)
     sum_band     :    170.43s CPU    183.97s WALL (      22 calls)
     v_of_rho     :     13.43s CPU     15.44s WALL (      23 calls)
     v_h          :      0.91s CPU      1.35s WALL (      23 calls)
     v_xc         :     12.52s CPU     14.09s WALL (      23 calls)
     newd         :     57.98s CPU     68.90s WALL (      23 calls)
     PAW_pot      :      2.59s CPU      2.60s WALL (      23 calls)
     mix_rho      :      2.86s CPU      2.99s WALL (      22 calls)
     energy_dftd3 :      0.58s CPU      0.58s WALL (       1 calls)

     Called by c_bands:
     init_us_2    :      3.89s CPU      3.96s WALL (      45 calls)
     cegterg      :    837.32s CPU    842.71s WALL (      22 calls)

     Called by sum_band:
     sum_band:wei :      0.00s CPU      0.00s WALL (      22 calls)
     sum_band:loo :    121.47s CPU    121.98s WALL (      22 calls)
     sum_band:buf :      0.00s CPU      0.00s WALL (      22 calls)
     sum_band:ini :      1.92s CPU      1.93s WALL (      22 calls)
     sum_band:cal :     54.57s CPU     54.73s WALL (      22 calls)
     sum_band:bec :      0.05s CPU      0.06s WALL (      22 calls)
     addusdens    :     48.06s CPU     60.94s WALL (      22 calls)
                                        0.00s GPU  (      22 calls)
     addusd:skk   :      3.04s CPU      5.56s WALL (     110 calls)
                                        0.00s GPU  (     110 calls)

     Called by *egterg:
     cdiaghg      :     20.03s CPU     20.17s WALL (     149 calls)
     cegterg:over :     80.90s CPU     81.14s WALL (     127 calls)
     cegterg:upda :     46.74s CPU     47.22s WALL (     127 calls)
     cegterg:last :    130.33s CPU    130.67s WALL (      47 calls)
     cdiaghg:chol :      1.27s CPU      1.28s WALL (     149 calls)
     cdiaghg:inve :      0.41s CPU      0.41s WALL (     149 calls)
     cdiaghg:para :      5.66s CPU      5.76s WALL (     298 calls)
     h_psi        :    442.86s CPU    445.39s WALL (     150 calls)
     s_psi        :     97.77s CPU     98.03s WALL (     150 calls)
     g_psi        :      0.60s CPU      0.60s WALL (     127 calls)

     Called by h_psi:
     h_psi:calbec :    140.25s CPU    140.63s WALL (     150 calls)
     vloc_psi     :    203.63s CPU    204.87s WALL (     150 calls)
     add_vuspsi   :     97.86s CPU     98.12s WALL (     150 calls)

     General routines
     calbec       :    194.82s CPU    195.35s WALL (     172 calls)
     fft          :     24.30s CPU     25.51s WALL (     297 calls)
     ffts         :      0.75s CPU      0.81s WALL (      45 calls)
     fftw         :    180.42s CPU    181.41s WALL (   43688 calls)
     interpolate  :      1.45s CPU      1.53s WALL (      23 calls)

     Parallel routines

     PAW routines
     PAW_pot      :      2.59s CPU      2.60s WALL (      23 calls)

     PWSCF        :  18m32.62s CPU  19m 6.11s WALL


   This run was terminated on:  17:53:58  13Apr2025            

=------------------------------------------------------------------------------=
   JOB DONE.
=------------------------------------------------------------------------------=
Note: The following floating-point exceptions are signalling: IEEE_DENORMAL
Note: The following floating-point exceptions are signalling: IEEE_DENORMAL
Note: The following floating-point exceptions are signalling: IEEE_DENORMAL
