--------------------------------------------------------------------------
WARNING: There was an error initializing an OpenFabrics device.

  Local host:   ga01
  Local device: mlx5_0
--------------------------------------------------------------------------

     Program PWSCF v.7.3.1 starts on 13Apr2025 at 16:45:30 

     This program is part of the open-source Quantum ESPRESSO suite
     for quantum simulation of materials; please cite
         "P. Giannozzi et al., J. Phys.:Condens. Matter 21 395502 (2009);
         "P. Giannozzi et al., J. Phys.:Condens. Matter 29 465901 (2017);
         "P. Giannozzi et al., J. Chem. Phys. 152 154105 (2020);
          URL http://www.quantum-espresso.org", 
     in publications or presentations arising from this work. More details at
     http://www.quantum-espresso.org/quote

     Parallel version (MPI), running on    31 processors

     MPI processes distributed on     1 nodes
     174570 MiB available memory on the printing compute node when the environment starts

     Waiting for input...
     Reading input from standard input
Warning: card &CELL ignored
Warning: card   CELL_DOFREE = 'ALL' ignored
Warning: card   CELL_DYNAMICS = 'BFGS', ignored
Warning: card / ignored

     Current dimensions of program PWSCF are:
     Max number of different atomic species (ntypx) = 10
     Max number of k-points (npk) =  40000
     Max angular momentum in pseudopotentials (lmaxx) =  4
     file C.pbe-n-kjpaw_psl.1.0.0.UPF: wavefunction(s)  2S 2P renormalized
     file O.pbe-n-kjpaw_psl.0.1.UPF: wavefunction(s)  2P renormalized

     R & G space division:  proc/nbgrp/npool/nimage =      31
     Subspace diagonalization in iterative solution of the eigenvalue problem:
     one sub-group per band group will be used
     custom distributed-memory algorithm (size of sub-group:  3*  3 procs)


     Parallelization info
     --------------------
     sticks:   dense  smooth     PW     G-vecs:    dense   smooth      PW
     Min        1421     710    177               193971    68581    8571
     Max        1422     711    178               193974    68585    8575
     Sum       44077   22039   5507              6013149  2126099  265753

     Using Slab Decomposition



     bravais-lattice index     =            0
     lattice parameter (alat)  =      30.3068  a.u.
     unit-cell volume          =   21992.9985 (a.u.)^3
     number of atoms/cell      =          132
     number of atomic types    =            5
     number of electrons       =       568.00
     number of Kohn-Sham states=          341
     kinetic-energy cutoff     =      80.0000  Ry
     charge density cutoff     =     640.0000  Ry
     scf convergence threshold =      1.0E-06
     mixing beta               =       0.2000
     number of iterations used =            8  plain     mixing
     energy convergence thresh.=      1.0E-04
     force convergence thresh. =      1.0E-03
     Exchange-correlation= SLA  PW   PBX  PBC
                           (   1   4   3   4   0   0   0)
     nstep                     =          300


     celldm(1)=  30.306823  celldm(2)=   0.000000  celldm(3)=   0.000000
     celldm(4)=   0.000000  celldm(5)=   0.000000  celldm(6)=   0.000000

     crystal axes: (cart. coord. in units of alat)
               a(1) = (   0.999970  -0.004119   0.006591 )  
               a(2) = (  -0.381917   0.943796  -0.000088 )  
               a(3) = (  -0.303567  -0.467633   0.835329 )  

     reciprocal axes: (cart. coord. in units 2 pi/alat)
               b(1) = (  0.997814  0.403831  0.588688 )  
               b(2) = (  0.000454  1.059790  0.593456 )  
               b(3) = ( -0.007873 -0.003075  1.192552 )  


     PseudoPot. # 1 for Ti read from file:
     /home/yongsang/Research/PSID_server_room/qe/[00]QE/qepseudo/SSSP_1.3.0_PBE_efficiency/ti_pbe_v1.4.uspp.F.UPF
     MD5 check sum: 88a00a6731bd790ddea75d31a80cb452
     Pseudo is Ultrasoft + core correction, Zval = 12.0
     Generated by new atomic code, or converted to UPF format
     Using radial grid of  851 points,  6 beta functions with: 
                l(1) =   0
                l(2) =   0
                l(3) =   1
                l(4) =   1
                l(5) =   2
                l(6) =   2
     Q(r) pseudized with  6 coefficients,  rinner =    1.000   1.000   1.000
                                                       1.000   1.000

     PseudoPot. # 2 for N  read from file:
     /home/yongsang/Research/PSID_server_room/qe/[00]QE/qepseudo/SSSP_1.3.0_PBE_efficiency/N.pbe-n-radius_5.UPF
     MD5 check sum: 16739722b17309cd8fe442a2ace49922
     Pseudo is Ultrasoft + core correction, Zval =  5.0
     Generated using "atomic" code by A. Dal Corso  v.5.1
     Using radial grid of 1085 points,  4 beta functions with: 
                l(1) =   0
                l(2) =   0
                l(3) =   1
                l(4) =   1
     Q(r) pseudized with 0 coefficients 


     PseudoPot. # 3 for C  read from file:
     /home/yongsang/Research/PSID_server_room/qe/[00]QE/qepseudo/SSSP_1.3.0_PBE_efficiency/C.pbe-n-kjpaw_psl.1.0.0.UPF
     MD5 check sum: 5d2aebdfa2cae82b50a7e79e9516da0f
     Pseudo is Projector augmented-wave + core cor, Zval =  4.0
     Generated using "atomic" code by A. Dal Corso  v.5.1
     Shape of augmentation charge: PSQ
     Using radial grid of 1073 points,  4 beta functions with: 
                l(1) =   0
                l(2) =   0
                l(3) =   1
                l(4) =   1
     Q(r) pseudized with 0 coefficients 


     PseudoPot. # 4 for H  read from file:
     /home/yongsang/Research/PSID_server_room/qe/[00]QE/qepseudo/SSSP_1.3.0_PBE_efficiency/H.pbe-rrkjus_psl.1.0.0.UPF
     MD5 check sum: f52b6d4d1c606e5624b1dc7b2218f220
     Pseudo is Ultrasoft, Zval =  1.0
     Generated using "atomic" code by A. Dal Corso  v.5.1
     Using radial grid of  929 points,  2 beta functions with: 
                l(1) =   0
                l(2) =   0
     Q(r) pseudized with 0 coefficients 


     PseudoPot. # 5 for O  read from file:
     /home/yongsang/Research/PSID_server_room/qe/[00]QE/qepseudo/SSSP_1.3.0_PBE_efficiency/O.pbe-n-kjpaw_psl.0.1.UPF
     MD5 check sum: 0234752ac141de4415c5fc33072bef88
     Pseudo is Projector augmented-wave + core cor, Zval =  6.0
     Generated using "atomic" code by A. Dal Corso  v.5.0.99 svn rev. 10869
     Shape of augmentation charge: BESSEL
     Using radial grid of 1095 points,  4 beta functions with: 
                l(1) =   0
                l(2) =   0
                l(3) =   1
                l(4) =   1
     Q(r) pseudized with 0 coefficients 


     atomic species   valence    mass     pseudopotential
     Ti               12.00    47.86700     Ti( 1.00)
     N                 5.00    14.00674     N ( 1.00)
     C                 4.00    12.01070     C ( 1.00)
     H                 1.00     1.00794     H ( 1.00)
     O                 6.00    15.99940     O ( 1.00)

     No symmetry found


                                    s                        frac. trans.

      isym =  1     identity                                     

 cryst.   s( 1) = (     1          0          0      )
                  (     0          1          0      )
                  (     0          0          1      )

 cart.    s( 1) = (  1.0000000  0.0000000 -0.0000000 )
                  ( -0.0000000  1.0000000  0.0000000 )
                  (  0.0000000  0.0000000  1.0000000 )


   Cartesian axes

     site n.     atom                  positions (alat units)
         1        Ti     tau(   1) = (  -0.1859674   0.1428679   0.7206433  )
         2        Ti     tau(   2) = (   0.5071897   0.3350719   0.1197776  )
         3        Ti     tau(   3) = (   0.0990385  -0.0616158   0.6021539  )
         4        Ti     tau(   4) = (   0.2198080   0.5412496   0.2374001  )
         5        Ti     tau(   5) = (   0.1158692   0.5980518   0.1151075  )
         6        Ti     tau(   6) = (   0.1919007  -0.1329815   0.7250710  )
         7        Ti     tau(   7) = (  -0.0947695   0.0639406   0.6014652  )
         8        Ti     tau(   8) = (   0.4018196   0.4017223   0.2351730  )
         9        H      tau(   9) = (   0.2294082   0.1045468   0.4473080  )
        10        H      tau(  10) = (  -0.0001747  -0.2480404   0.4610804  )
        11        H      tau(  11) = (   0.3223125   0.7171067   0.3791185  )
        12        H      tau(  12) = (  -0.1853175   0.3929614   0.7102917  )
        13        H      tau(  13) = (   0.4992199   0.0805099   0.1375539  )
        14        H      tau(  14) = (  -0.4210329   0.0456978   0.6996463  )
        15        H      tau(  15) = (   0.7372510   0.4284627   0.1319447  )
        16        H      tau(  16) = (   0.2027059  -0.3942156   0.7053155  )
        17        H      tau(  17) = (  -0.1277265   0.5116009   0.1319113  )
        18        H      tau(  18) = (   0.3013667   0.2250810   0.3779565  )
        19        H      tau(  19) = (   0.0051999   0.2498799   0.4642636  )
        20        H      tau(  20) = (  -0.2276641  -0.1067050   0.4532022  )
        21        H      tau(  21) = (   0.1741803   0.5113535  -0.0041785  )
        22        H      tau(  22) = (   0.4409118   0.4265076   0.0068687  )
        23        H      tau(  23) = (   0.0291012   0.0438920   0.6978051  )
        24        H      tau(  24) = (   0.2802394   0.4335570   0.1389800  )
        25        H      tau(  25) = (   0.2297731  -0.1457287   0.3854905  )
        26        H      tau(  26) = (   0.0862984   0.6141191   0.4561410  )
        27        H      tau(  27) = (  -0.3737079   0.2588403   0.5698472  )
        28        H      tau(  28) = (   0.6851404   0.2137952   0.2754880  )
        29        H      tau(  29) = (  -0.2197774   0.1555631   0.3762326  )
        30        H      tau(  30) = (  -0.0676195   0.7323427   0.2712187  )
        31        H      tau(  31) = (   0.0051860   0.3883725   0.4109361  )
        32        H      tau(  32) = (   0.0938410   0.4345100   0.3657451  )
        33        H      tau(  33) = (   0.1061202   0.7990162   0.1638885  )
        34        H      tau(  34) = (   0.4926919  -0.0467637   0.2130443  )
        35        H      tau(  35) = (   0.4691259  -0.0216758   0.6296367  )
        36        H      tau(  36) = (   0.3837026  -0.0710007   0.6779539  )
        37        H      tau(  37) = (   0.6234873   0.5606456   0.3990157  )
        38        H      tau(  38) = (   0.5364873   0.5159864   0.3493208  )
        39        H      tau(  39) = (   0.5059028   0.3317706   0.5396635  )
        40        H      tau(  40) = (   0.4763725   0.3500639   0.4354801  )
        41        H      tau(  41) = (   0.4391846  -0.3083157   0.5989346  )
        42        H      tau(  42) = (   0.3568722  -0.2450793   0.6343809  )
        43        C      tau(  43) = (   0.5496401   0.3042342   0.2973472  )
        44        C      tau(  44) = (  -0.2368059   0.1683414   0.5447962  )
        45        C      tau(  45) = (   0.2472878  -0.1593586   0.5480405  )
        46        C      tau(  46) = (   0.0665141   0.6300931   0.2919533  )
        47        C      tau(  47) = (   0.6018436   0.2689442   0.3642395  )
        48        C      tau(  48) = (  -0.2921893   0.2044268   0.4792741  )
        49        C      tau(  49) = (   0.3003398  -0.2000865   0.4848933  )
        50        C      tau(  50) = (   0.0143320   0.6694062   0.3582173  )
        51        C      tau(  51) = (   0.5831580   0.2810318   0.4507775  )
        52        C      tau(  52) = (  -0.2743723   0.1917072   0.3940968  )
        53        C      tau(  53) = (   0.3686335  -0.2533410   0.5069687  )
        54        C      tau(  54) = (  -0.0532002   0.7214373   0.3366160  )
        55        C      tau(  55) = (   0.0335679   0.6544560   0.4413477  )
        56        C      tau(  56) = (   0.2823312  -0.1863088   0.3999139  )
        57        C      tau(  57) = (   0.6728406   0.2221097   0.3417725  )
        58        C      tau(  58) = (  -0.3616379   0.2501163   0.5034768  )
        59        C      tau(  59) = (   0.1954416   0.3061387   0.3834166  )
        60        C      tau(  60) = (   0.1129330   0.1713896   0.4590804  )
        61        C      tau(  61) = (   0.4306028   0.6390604   0.3781878  )
        62        C      tau(  62) = (  -0.1097639  -0.1717556   0.4611018  )
        63        C      tau(  63) = (   0.5038210   0.0847932   0.0043896  )
        64        C      tau(  64) = (   0.1131349   0.8539304   0.0080925  )
        65        C      tau(  65) = (   0.7334034   0.4235904  -0.0012979  )
        66        C      tau(  66) = (  -0.1159297   0.5168986  -0.0023856  )
        67        C      tau(  67) = (   0.2413586   0.3731092   0.3400450  )
        68        C      tau(  68) = (   0.0689379   0.1004912   0.5006634  )
        69        C      tau(  69) = (   0.3871293   0.5743148   0.3298842  )
        70        C      tau(  70) = (  -0.0683906  -0.1044037   0.5101515  )
        71        C      tau(  71) = (   0.5077480   0.1777161   0.0037211  )
        72        C      tau(  72) = (   0.1104478   0.7621845   0.0054619  )
        73        C      tau(  73) = (   0.6532727   0.3784957   0.0004330  )
        74        C      tau(  74) = (  -0.0343948   0.5619900  -0.0000890  )
        75        C      tau(  75) = (   0.1101193   0.3150380   0.4082311  )
        76        C      tau(  76) = (   0.1972468   0.1631667   0.4357521  )
        77        C      tau(  77) = (   0.3870394   0.7124442   0.3992116  )
        78        C      tau(  78) = (  -0.0650200  -0.2431037   0.4411591  )
        79        C      tau(  79) = (   0.4993944   0.0436598   0.0804012  )
        80        C      tau(  80) = (  -0.1857325   0.4299271   0.7672849  )
        81        C      tau(  81) = (   0.7699254   0.4465539   0.0752319  )
        82        C      tau(  82) = (  -0.4538890   0.0278198   0.7564813  )
        83        C      tau(  83) = (   0.5159807   0.6302218   0.4029281  )
        84        C      tau(  84) = (  -0.1938505  -0.1632034   0.4368823  )
        85        C      tau(  85) = (   0.2366798   0.2299695   0.3980623  )
        86        C      tau(  86) = (   0.0704387   0.2455552   0.4454297  )
        87        C      tau(  87) = (   0.4705295  -0.0215331   0.7577448  )
        88        C      tau(  88) = (  -0.1558514   0.4944156   0.0726134  )
        89        C      tau(  89) = (   0.2000389  -0.4277843   0.7642206  )
        90        C      tau(  90) = (   0.1123524   0.8995436   0.0848353  )
        91        N      tau(  91) = (   0.0669003   0.3873255   0.3984945  )
        92        N      tau(  92) = (   0.1063966   0.8622781   0.1606285  )
        93        N      tau(  93) = (   0.4403549  -0.0428089   0.6815006  )
        94        N      tau(  94) = (   0.5618847   0.5610625   0.3859605  )
        95        N      tau(  95) = (   0.5153762   0.3238813   0.4779295  )
        96        N      tau(  96) = (   0.3901217  -0.2707127   0.5870225  )
        97        O      tau(  97) = (   0.4863948   0.3492705   0.3176163  )
        98        O      tau(  98) = (  -0.1776372   0.1205655   0.5216452  )
        99        O      tau(  99) = (   0.2646772  -0.1707008   0.6256787  )
       100        O      tau( 100) = (   0.0463233   0.6413765   0.2160818  )
       101        O      tau( 101) = (   0.1294639   0.5867720   0.3152680  )
       102        O      tau( 102) = (   0.1862988  -0.1139323   0.5243430  )
       103        O      tau( 103) = (   0.5688796   0.2894778   0.2212447  )
       104        O      tau( 104) = (  -0.2516780   0.1870484   0.6208294  )
       105        O      tau( 105) = (   0.4030541   0.3106987   0.1706455  )
       106        O      tau( 106) = (  -0.0866001   0.1590589   0.6656074  )
       107        O      tau( 107) = (   0.4913438   0.4360140   0.1675311  )
       108        O      tau( 108) = (  -0.1794617   0.0376279   0.6740982  )
       109        O      tau( 109) = (   0.0993890  -0.1589238   0.6649654  )
       110        O      tau( 110) = (   0.2108517   0.6334647   0.1732604  )
       111        O      tau( 111) = (   0.1764522  -0.0275475   0.6798930  )
       112        O      tau( 112) = (   0.1396019   0.4982094   0.1621570  )
       113        O      tau( 113) = (   0.3179858   0.3602778   0.3214464  )
       114        O      tau( 114) = (  -0.0088990   0.1071671   0.5136644  )
       115        O      tau( 115) = (   0.4253361   0.5074085   0.3106555  )
       116        O      tau( 116) = (  -0.1126048  -0.0429190   0.5335601  )
       117        O      tau( 117) = (   0.2027800  -0.2528639   0.7688080  )
       118        O      tau( 118) = (   0.1044280   0.7211243   0.0733543  )
       119        O      tau( 119) = (   0.3147181  -0.1084643   0.7667072  )
       120        O      tau( 120) = (  -0.0007768   0.5719196   0.0714544  )
       121        O      tau( 121) = (   0.3112449   0.5873631   0.3079563  )
       122        O      tau( 122) = (   0.0086752  -0.1119165   0.5268601  )
       123        O      tau( 123) = (   0.2033478   0.4407822   0.3220576  )
       124        O      tau( 124) = (   0.1128742   0.0374855   0.5212056  )
       125        O      tau( 125) = (   0.6213576   0.3604365   0.0713368  )
       126        O      tau( 126) = (  -0.3065306   0.1192234   0.7671443  )
       127        O      tau( 127) = (   0.5119709   0.2152885   0.0731665  )
       128        O      tau( 128) = (  -0.1887910   0.2585271   0.7697979  )
       129        O      tau( 129) = (   0.3080306   0.4664638   0.1816965  )
       130        O      tau( 130) = (   0.0055231   0.0069919   0.6558123  )
       131        O      tau( 131) = (   0.4587384   0.3685887   0.0053332  )
       132        O      tau( 132) = (   0.1589203   0.5699072  -0.0000706  )

     --------------------------------------------
     DFT-D3 Dispersion Correction (3-body terms):
     --------------------------------------------
       Reference C6 values for interpolation: 

         atom   Coordination number   C6
         H          0.912             6.05
         H          0.000            15.18
         C          0.000            98.23
         C          0.987            86.49
         C          1.998            58.72
         C          2.999            51.56
         C          3.984            36.41
         N          0.000            50.54
         N          0.994            44.25
         N          2.014            39.35
         N          2.990            31.16
         O          0.000            31.01
         O          0.993            25.63
         O          1.989            20.74
         Ti         0.000          2723.84
         Ti         1.830           604.00
         Ti         3.868           643.18

       Values used:

         atom   Coordination number  R0_AB[au]  C6      C8
         Ti         7.303            3.557    643.18  76289.64
         Ti         7.313            3.557    643.18  76289.64
         Ti         7.301            3.557    643.18  76289.64
         Ti         7.289            3.557    643.18  76289.64
         Ti         7.286            3.557    643.18  76289.64
         Ti         7.264            3.557    643.18  76289.64
         Ti         7.302            3.557    643.18  76289.64
         Ti         7.275            3.557    643.18  76289.64
         H          1.004            2.062      6.18     74.67
         H          1.005            2.062      6.18     74.67
         H          1.005            2.062      6.18     74.66
         H          1.005            2.062      6.18     74.66
         H          1.005            2.062      6.18     74.66
         H          1.005            2.062      6.18     74.67
         H          1.005            2.062      6.18     74.66
         H          1.004            2.062      6.18     74.67
         H          1.004            2.062      6.18     74.67
         H          1.005            2.062      6.18     74.66
         H          1.005            2.062      6.18     74.67
         H          1.004            2.062      6.18     74.67
         H          1.082            2.062      6.12     74.03
         H          1.080            2.062      6.13     74.04
         H          1.084            2.062      6.12     74.02
         H          1.086            2.062      6.12     74.00
         H          1.005            2.062      6.18     74.66
         H          1.005            2.062      6.18     74.67
         H          1.005            2.062      6.18     74.67
         H          1.005            2.062      6.18     74.66
         H          1.004            2.062      6.18     74.68
         H          1.004            2.062      6.18     74.68
         H          1.007            2.062      6.17     74.65
         H          1.014            2.062      6.17     74.57
         H          1.014            2.062      6.17     74.57
         H          1.007            2.062      6.18     74.65
         H          1.007            2.062      6.17     74.65
         H          1.014            2.062      6.17     74.57
         H          1.007            2.062      6.18     74.65
         H          1.014            2.062      6.17     74.57
         H          1.007            2.062      6.18     74.65
         H          1.013            2.062      6.17     74.58
         H          1.007            2.062      6.18     74.65
         H          1.013            2.062      6.17     74.58
         C          3.334            2.750     47.85   1383.97
         C          3.357            2.750     47.34   1369.02
         C          3.332            2.750     47.90   1385.28
         C          3.341            2.750     47.69   1379.41
         C          3.208            2.750     49.97   1445.17
         C          3.187            2.750     50.20   1451.82
         C          3.207            2.750     49.98   1445.37
         C          3.186            2.750     50.20   1451.96
         C          3.163            2.750     50.42   1458.34
         C          3.155            2.750     50.49   1460.36
         C          3.162            2.750     50.43   1458.54
         C          3.155            2.750     50.49   1460.34
         C          3.212            2.750     49.92   1443.68
         C          3.172            2.750     50.34   1455.89
         C          3.173            2.750     50.34   1455.83
         C          3.211            2.750     49.93   1443.97
         C          3.210            2.750     49.94   1444.32
         C          3.188            2.750     50.18   1451.31
         C          3.210            2.750     49.94   1444.31
         C          3.189            2.750     50.18   1451.25
         C          3.189            2.750     50.17   1451.03
         C          3.211            2.750     49.93   1443.93
         C          3.210            2.750     49.94   1444.40
         C          3.189            2.750     50.18   1451.16
         C          3.218            2.750     49.84   1441.54
         C          3.227            2.750     49.73   1438.31
         C          3.221            2.750     49.80   1440.37
         C          3.229            2.750     49.70   1437.48
         C          3.226            2.750     49.75   1438.77
         C          3.223            2.750     49.78   1439.67
         C          3.222            2.750     49.80   1440.28
         C          3.229            2.750     49.71   1437.71
         C          3.164            2.750     50.41   1458.05
         C          3.158            2.750     50.47   1459.67
         C          3.173            2.750     50.33   1455.73
         C          3.210            2.750     49.94   1444.31
         C          3.213            2.750     49.91   1443.47
         C          3.175            2.750     50.31   1455.15
         C          3.174            2.750     50.32   1455.33
         C          3.210            2.750     49.95   1444.51
         C          3.165            2.750     50.40   1457.74
         C          3.157            2.750     50.47   1459.77
         C          3.174            2.750     50.32   1455.48
         C          3.209            2.750     49.96   1444.82
         C          3.164            2.750     50.41   1458.09
         C          3.158            2.750     50.47   1459.69
         C          3.157            2.750     50.48   1459.93
         C          3.164            2.750     50.42   1458.15
         N          3.092            2.478     31.24    689.17
         N          3.092            2.478     31.24    689.16
         N          3.092            2.478     31.24    689.16
         N          3.092            2.478     31.24    689.16
         N          3.092            2.478     31.24    689.16
         N          3.092            2.478     31.24    689.17
         O          2.047            2.345     20.79    419.64
         O          2.041            2.345     20.80    419.70
         O          2.050            2.345     20.79    419.62
         O          2.029            2.345     20.80    419.81
         O          2.046            2.345     20.80    419.66
         O          2.041            2.345     20.80    419.70
         O          2.045            2.345     20.80    419.66
         O          2.046            2.345     20.80    419.66
         O          2.009            2.345     20.81    420.02
         O          2.012            2.345     20.81    419.99
         O          2.011            2.345     20.81    420.00
         O          2.012            2.345     20.81    419.99
         O          2.013            2.345     20.81    419.98
         O          2.012            2.345     20.81    419.98
         O          2.010            2.345     20.81    420.01
         O          2.009            2.345     20.81    420.02
         O          2.033            2.345     20.80    419.77
         O          2.014            2.345     20.81    419.96
         O          2.010            2.345     20.81    420.00
         O          2.028            2.345     20.80    419.82
         O          2.027            2.345     20.80    419.83
         O          2.022            2.345     20.81    419.88
         O          2.010            2.345     20.81    420.01
         O          2.032            2.345     20.80    419.78
         O          2.046            2.345     20.80    419.66
         O          2.031            2.345     20.80    419.79
         O          2.006            2.345     20.82    420.06
         O          2.023            2.345     20.81    419.87
         O          2.036            2.345     20.80    419.75
         O          2.005            2.345     20.82    420.06
         O          2.026            2.345     20.80    419.84
         O          2.041            2.345     20.80    419.70
         O          2.945            2.345     20.74    418.58
         O          2.941            2.345     20.74    418.58
         O          2.943            2.345     20.74    418.58
         O          2.944            2.345     20.74    418.58

         Molecular C6 ( Ry / a.u.^6 ) =    660547.30


   Crystallographic axes

     site n.     atom                  positions (cryst. coord.)
         1        Ti     tau(   1) = (  0.2963677  0.5789956  0.8604291  )
         2        Ti     tau(   2) = (  0.7119048  0.4264191  0.1378178  )
         3        Ti     tau(   3) = (  0.4284205  0.2920969  0.7175093  )
         4        Ti     tau(   4) = (  0.5776552  0.7145975  0.2797172  )
         5        Ti     tau(   5) = (  0.4248900  0.7021734  0.1345206  )
         6        Ti     tau(   6) = (  0.5646198  0.2894524  0.8635826  )
         7        Ti     tau(   7) = (  0.2853342  0.4246636  0.7178278  )
         8        Ti     tau(   8) = (  0.7016124  0.5654887  0.2760573  )
         9        H      tau(   9) = (  0.5344507  0.3763595  0.5313103  )
        10        H      tau(  10) = (  0.1710919  0.0107600  0.5506262  )
        11        H      tau(  11) = (  0.8343800  0.9851193  0.4473760  )
        12        H      tau(  12) = (  0.3919177  0.8378993  0.8473102  )
        13        H      tau(  13) = (  0.6116171  0.1671825  0.1598623  )
        14        H      tau(  14) = (  0.0102152  0.4634480  0.8375384  )
        15        H      tau(  15) = (  0.9863398  0.5327189  0.1502293  )
        16        H      tau(  16) = (  0.4582772  0.0008798  0.8407413  )
        17        H      tau(  17) = (  0.1568074  0.6204153  0.1567435  )
        18        H      tau(  18) = (  0.6141009  0.4629761  0.4476680  )
        19        H      tau(  19) = (  0.3794041  0.5403426  0.5528490  )
        20        H      tau(  20) = ( -0.0034623  0.1557672  0.5425874  )
        21        H      tau(  21) = (  0.3778399  0.5395268 -0.0079266  )
        22        H      tau(  22) = (  0.6162282  0.4562852  0.0034087  )
        23        H      tau(  23) = (  0.4575520  0.4606461  0.8318045  )
        24        H      tau(  24) = (  0.5365262  0.5420853  0.1622015  )
        25        H      tau(  25) = (  0.3973548  0.0744341  0.4583565  )
        26        H      tau(  26) = (  0.6026346  0.9215763  0.5414041  )
        27        H      tau(  27) = (  0.0670990  0.6123258  0.6817184  )
        28        H      tau(  28) = (  0.9321561  0.3903794  0.3224824  )
        29        H      tau(  29) = (  0.0650078  0.3880419  0.4499287  )
        30        H      tau(  30) = (  0.3879340  0.9370554  0.3217229  )
        31        H      tau(  31) = (  0.4039245  0.6554682  0.4888275  )
        32        H      tau(  32) = (  0.4844141  0.6775857  0.4340951  )
        33        H      tau(  33) = (  0.5250346  0.9440985  0.1921533  )
        34        H      tau(  34) = (  0.5981467  0.0770965  0.2503313  )
        35        H      tau(  35) = (  0.8300065  0.3509029  0.7472476  )
        36        H      tau(  36) = (  0.7532948  0.3272642  0.8056925  )
        37        H      tau(  37) = (  1.0834258  0.8312482  0.4692145  )
        38        H      tau(  38) = (  0.9493264  0.7543876  0.4107729  )
        39        H      tau(  39) = (  0.9564693  0.6721036  0.6385736  )
        40        H      tau(  40) = (  0.8730595  0.6296490  0.5145058  )
        41        H      tau(  41) = (  0.6663028  0.0288908  0.7117508  )
        42        H      tau(  42) = (  0.6305739  0.1169065  0.7544760  )
        43        C      tau(  43) = (  0.8463423  0.4991366  0.3493393  )
        44        C      tau(  44) = (  0.1524083  0.5016115  0.6510442  )
        45        C      tau(  45) = (  0.5050182  0.1564635  0.6521097  )
        46        C      tau(  46) = (  0.4926890  0.8410582  0.3457084  )
        47        C      tau(  47) = (  0.9235591  0.5014580  0.4288094  )
        48        C      tau(  48) = (  0.0731462  0.5009449  0.5732308  )
        49        C      tau(  49) = (  0.5043330  0.0758495  0.5765109  )
        50        C      tau(  50) = (  0.4955056  0.9220229  0.4250215  )
        51        C      tau(  51) = (  0.9607397  0.5656163  0.5321203  )
        52        C      tau(  52) = (  0.0356449  0.4369239  0.4715514  )
        53        C      tau(  53) = (  0.5639672  0.0325427  0.6024631  )
        54        C      tau(  54) = (  0.4364163  0.9643148  0.3996325  )
        55        C      tau(  55) = (  0.5576000  0.9555218  0.5240533  )
        56        C      tau(  56) = (  0.4419013  0.0400112  0.4752681  )
        57        C      tau(  57) = (  0.9622617  0.4385223  0.4016014  )
        58        C      tau(  58) = (  0.0365480  0.5636978  0.6025000  )
        59        C      tau(  59) = (  0.5443553  0.5520725  0.4547641  )
        60        C      tau(  60) = (  0.4521536  0.4541323  0.5460609  )
        61        C      tau(  61) = (  0.9103681  0.9019034  0.4456536  )
        62        C      tau(  62) = (  0.0925610  0.0915688  0.5512799  )
        63        C      tau(  63) = (  0.5395457  0.0926969  0.0010077  )
        64        C      tau(  64) = (  0.4624947  0.9098412  0.0061345  )
        65        C      tau(  65) = (  0.9020947  0.4484799 -0.0086241  )
        66        C      tau(  66) = (  0.0916589  0.5463358 -0.0035216  )
        67        C      tau(  67) = (  0.5916843  0.5973290  0.4024739  )
        68        C      tau(  68) = (  0.4041031  0.4036525  0.5962152  )
        69        C      tau(  69) = (  0.8124077  0.8046010  0.3885904  )
        70        C      tau(  70) = (  0.1899177  0.1920753  0.6092414  )
        71        C      tau(  71) = (  0.5805957  0.1907808 -0.0001061  )
        72        C      tau(  72) = (  0.4212151  0.8110474  0.0033006  )
        73        C      tau(  73) = (  0.8049475  0.4016798 -0.0057904  )
        74        C      tau(  74) = (  0.1925768  0.5955231 -0.0015633  )
        75        C      tau(  75) = (  0.4774213  0.5761915  0.4850010  )
        76        C      tau(  76) = (  0.5192293  0.4316117  0.5176022  )
        77        C      tau(  77) = (  0.9089111  0.9921318  0.4708428  )
        78        C      tau(  78) = (  0.0966546  0.0041400  0.5273643  )
        79        C      tau(  79) = (  0.5632650  0.0942117  0.0918167  )
        80        C      tau(  80) = (  0.4399828  0.9108980  0.9151671  )
        81        C      tau(  81) = (  0.9928624  0.5182501  0.0822836  )
        82        C      tau(  82) = (  0.0036693  0.4782153  0.9056307  )
        83        C      tau(  83) = (  1.0065544  0.9072574  0.4745126  )
        84        C      tau(  84) = ( -0.0021458  0.0862209  0.5230326  )
        85        C      tau(  85) = (  0.5633656  0.4800595  0.4721395  )
        86        C      tau(  86) = (  0.4316665  0.5246119  0.5298883  )
        87        C      tau(  87) = (  0.9068803  0.4270813  0.9000116  )
        88        C      tau(  88) = (  0.0868961  0.5669989  0.0863020  )
        89        C      tau(  89) = (  0.4767367  0.0002604  0.9111129  )
        90        C      tau(  90) = (  0.5253116  1.0037247  0.0975201  )
        91        N      tau(  91) = (  0.4577569  0.6470031  0.4735076  )
        92        N      tau(  92) = (  0.5489383  1.0092082  0.1880689  )
        93        N      tau(  93) = (  0.8232959  0.3592721  0.8093895  )
        94        N      tau(  94) = (  1.0144408  0.8239145  0.4541292  )
        95        N      tau(  95) = (  0.9263941  0.6271105  0.5649024  )
        96        N      tau(  96) = (  0.6255199  0.0616504  0.6978156  )
        97        O      tau(  97) = (  0.8133544  0.5588657  0.3738707  )
        98        O      tau(  98) = (  0.1785255  0.4372669  0.6231166  )
        99        O      tau(  99) = (  0.5634939  0.1905259  0.7445952  )
       100        O      tau( 100) = (  0.4324342  0.8079806  0.2553519  )
       101        O      tau( 101) = (  0.5517319  0.8090117  0.3731500  )
       102        O      tau( 102) = (  0.4485566  0.1905147  0.6241897  )
       103        O      tau( 103) = (  0.8147799  0.4383431  0.2584770  )
       104        O      tau( 104) = (  0.1898829  0.5665527  0.7417773  )
       105        O      tau( 105) = (  0.6280995  0.4307292  0.1993751  )
       106        O      tau( 106) = (  0.3696572  0.5635384  0.7939639  )
       107        O      tau( 107) = (  0.7649690  0.5617289  0.1945807  )
       108        O      tau( 108) = (  0.2329595  0.4398437  0.8051940  )
       109        O      tau( 109) = (  0.4264506  0.2262469  0.7927117  )
       110        O      tau( 110) = (  0.5681995  0.7742579  0.2030143  )
       111        O      tau( 111) = (  0.5651867  0.3743721  0.8095030  )
       112        O      tau( 112) = (  0.4359488  0.6242939  0.1907496  )
       113        O      tau( 113) = (  0.6520135  0.5727276  0.3797303  )
       114        O      tau( 114) = (  0.3367859  0.4184078  0.6123118  )
       115        O      tau( 115) = (  0.8121924  0.7223002  0.3655640  )
       116        O      tau( 116) = (  0.1844098  0.2711081  0.6373164  )
       117        O      tau( 117) = (  0.5528106  0.1883630  0.9160242  )
       118        O      tau( 118) = (  0.4385946  0.8078205  0.0844394  )
       119        O      tau( 119) = (  0.7215802  0.3402005  0.9121937  )
       120        O      tau( 120) = (  0.2722479  0.6485195  0.0834607  )
       121        O      tau( 121) = (  0.7290498  0.8053816  0.3629975  )
       122        O      tau( 122) = (  0.2736171  0.1940642  0.6285837  )
       123        O      tau( 123) = (  0.5704960  0.6583561  0.3811142  )
       124        O      tau( 124) = (  0.4345927  0.3490906  0.6205607  )
       125        O      tau( 125) = (  0.8075495  0.4246046  0.0790728  )
       126        O      tau( 126) = (  0.1938943  0.5814789  0.9169058  )
       127        O      tau( 127) = (  0.6408640  0.2718144  0.0825623  )
       128        O      tau( 128) = (  0.3691937  0.7307399  0.9187150  )
       129        O      tau( 129) = (  0.6026921  0.6023226  0.2128232  )
       130        O      tau( 130) = (  0.3944034  0.3966081  0.7820250  )
       131        O      tau( 131) = (  0.6097225  0.3940001  0.0016153  )
       132        O      tau( 132) = (  0.3886773  0.6040125 -0.0030876  )

     number of k points=     1  Gaussian smearing, width (Ry)=  0.0500
                       cart. coord. in units 2pi/alat
        k(    1) = (   0.0000000   0.0000000   0.0000000), wk =   2.0000000

                       cryst. coord.
        k(    1) = (   0.0000000   0.0000000   0.0000000), wk =   2.0000000

     Dense  grid:  6013149 G-vectors     FFT dimensions: ( 250, 250, 250)

     Smooth grid:  2126099 G-vectors     FFT dimensions: ( 180, 180, 180)

     Dynamical RAM for                 wfc:      44.60 MB

     Dynamical RAM for     wfc (w. buffer):      44.60 MB

     Dynamical RAM for           str. fact:      14.80 MB

     Dynamical RAM for           local pot:       0.00 MB

     Dynamical RAM for          nlocal pot:     121.90 MB

     Dynamical RAM for                qrad:      10.15 MB

     Dynamical RAM for          rho,v,vnew:      21.75 MB

     Dynamical RAM for               rhoin:       7.25 MB

     Dynamical RAM for            rho*nmix:      47.36 MB

     Dynamical RAM for           G-vectors:      11.62 MB

     Dynamical RAM for          h,s,v(r/c):       2.36 MB

     Dynamical RAM for          <psi|beta>:       4.85 MB

     Dynamical RAM for                 psi:      89.20 MB

     Dynamical RAM for                hpsi:      89.20 MB

     Dynamical RAM for                spsi:      89.20 MB

     Dynamical RAM for      wfcinit/wfcrot:     129.14 MB

     Dynamical RAM for           addusdens:     692.59 MB

     Dynamical RAM for          addusforce:     972.48 MB

     Estimated static dynamical RAM per process >     271.30 MB

     Estimated max dynamical RAM per process >       1.26 GB

     Estimated total dynamical RAM >      39.09 GB

     Initial potential from superposition of free atoms

     starting charge     559.9972, renormalised to     568.0000

     negative rho (up, down):  1.104E-02 0.000E+00
[ga01:329404] 30 more processes have sent help message help-mpi-btl-openib.txt / error in device init
[ga01:329404] Set MCA parameter "orte_base_help_aggregate" to 0 to see all help / error messages
     Starting wfcs are  474 randomized atomic wfcs
     Checking if some PAW data can be deallocated... 
       PAW data deallocated on   18 nodes for type:  3
       PAW data deallocated on   22 nodes for type:  5

     total cpu time spent up to now is       23.4 secs

     Self-consistent Calculation

     iteration #  1     ecut=    80.00 Ry     beta= 0.20
     Davidson diagonalization with overlap

---- Real-time Memory Report at c_bands before calling an iterative solver
           853 MiB given to the printing process from OS
             0 MiB allocation reported by mallinfo(arena+hblkhd)
        164896 MiB available memory on the node where the printing process lives
------------------
     ethr =  1.00E-02,  avg # of iterations =  3.0

     negative rho (up, down):  3.626E-03 0.000E+00

     total cpu time spent up to now is       78.5 secs

     total energy              =   -3455.17882944 Ry
     estimated scf accuracy    <     177.13655319 Ry

     iteration #  2     ecut=    80.00 Ry     beta= 0.20
     Davidson diagonalization with overlap

---- Real-time Memory Report at c_bands before calling an iterative solver
          1034 MiB given to the printing process from OS
             0 MiB allocation reported by mallinfo(arena+hblkhd)
        164247 MiB available memory on the node where the printing process lives
------------------
     ethr =  1.00E-02,  avg # of iterations =  6.0

     negative rho (up, down):  4.631E-03 0.000E+00

     total cpu time spent up to now is      138.9 secs

     total energy              =   -3486.38326310 Ry
     estimated scf accuracy    <     220.93326369 Ry

     iteration #  3     ecut=    80.00 Ry     beta= 0.20
     Davidson diagonalization with overlap

---- Real-time Memory Report at c_bands before calling an iterative solver
          1040 MiB given to the printing process from OS
             0 MiB allocation reported by mallinfo(arena+hblkhd)
        164127 MiB available memory on the node where the printing process lives
------------------
     ethr =  1.00E-02,  avg # of iterations =  5.0

     negative rho (up, down):  5.671E-03 0.000E+00

     total cpu time spent up to now is      181.0 secs

     total energy              =   -3506.19646508 Ry
     estimated scf accuracy    <      18.08499031 Ry

     iteration #  4     ecut=    80.00 Ry     beta= 0.20
     Davidson diagonalization with overlap

---- Real-time Memory Report at c_bands before calling an iterative solver
          1042 MiB given to the printing process from OS
             0 MiB allocation reported by mallinfo(arena+hblkhd)
        163998 MiB available memory on the node where the printing process lives
------------------
     ethr =  3.18E-03,  avg # of iterations =  2.0

     negative rho (up, down):  1.102E-02 0.000E+00

     total cpu time spent up to now is      221.6 secs

     total energy              =   -3500.22746139 Ry
     estimated scf accuracy    <      11.66153636 Ry

     iteration #  5     ecut=    80.00 Ry     beta= 0.20
     Davidson diagonalization with overlap

---- Real-time Memory Report at c_bands before calling an iterative solver
          1045 MiB given to the printing process from OS
             0 MiB allocation reported by mallinfo(arena+hblkhd)
        163892 MiB available memory on the node where the printing process lives
------------------
     ethr =  2.05E-03,  avg # of iterations =  8.0

     negative rho (up, down):  9.975E-03 0.000E+00

     total cpu time spent up to now is      294.9 secs

     total energy              =   -3504.18748563 Ry
     estimated scf accuracy    <      28.72668632 Ry

     iteration #  6     ecut=    80.00 Ry     beta= 0.20
     Davidson diagonalization with overlap

---- Real-time Memory Report at c_bands before calling an iterative solver
          1050 MiB given to the printing process from OS
             0 MiB allocation reported by mallinfo(arena+hblkhd)
        163836 MiB available memory on the node where the printing process lives
------------------
     ethr =  2.05E-03,  avg # of iterations =  2.0

     negative rho (up, down):  9.673E-03 0.000E+00

     total cpu time spent up to now is      335.8 secs

     total energy              =   -3503.81972646 Ry
     estimated scf accuracy    <       9.12229495 Ry

     iteration #  7     ecut=    80.00 Ry     beta= 0.20
     Davidson diagonalization with overlap

---- Real-time Memory Report at c_bands before calling an iterative solver
          1057 MiB given to the printing process from OS
             0 MiB allocation reported by mallinfo(arena+hblkhd)
        163723 MiB available memory on the node where the printing process lives
------------------
     ethr =  1.61E-03,  avg # of iterations =  3.0

     negative rho (up, down):  9.365E-03 0.000E+00

     total cpu time spent up to now is      376.9 secs

     total energy              =   -3503.24732918 Ry
     estimated scf accuracy    <       2.82685518 Ry

     iteration #  8     ecut=    80.00 Ry     beta= 0.20
     Davidson diagonalization with overlap

---- Real-time Memory Report at c_bands before calling an iterative solver
          1059 MiB given to the printing process from OS
             0 MiB allocation reported by mallinfo(arena+hblkhd)
        163610 MiB available memory on the node where the printing process lives
------------------
     ethr =  4.98E-04,  avg # of iterations =  4.0

     negative rho (up, down):  9.762E-03 0.000E+00

     total cpu time spent up to now is      422.7 secs

     total energy              =   -3503.78801497 Ry
     estimated scf accuracy    <       0.37991805 Ry

     iteration #  9     ecut=    80.00 Ry     beta= 0.20
     Davidson diagonalization with overlap

---- Real-time Memory Report at c_bands before calling an iterative solver
          1064 MiB given to the printing process from OS
             0 MiB allocation reported by mallinfo(arena+hblkhd)
        163498 MiB available memory on the node where the printing process lives
------------------
     ethr =  6.69E-05,  avg # of iterations = 13.0

     negative rho (up, down):  9.716E-03 0.000E+00

     total cpu time spent up to now is      470.3 secs

     total energy              =   -3503.78426105 Ry
     estimated scf accuracy    <       0.25712311 Ry

     iteration # 10     ecut=    80.00 Ry     beta= 0.20
     Davidson diagonalization with overlap

---- Real-time Memory Report at c_bands before calling an iterative solver
          1070 MiB given to the printing process from OS
             0 MiB allocation reported by mallinfo(arena+hblkhd)
        163380 MiB available memory on the node where the printing process lives
------------------
     ethr =  4.53E-05,  avg # of iterations = 19.0

     negative rho (up, down):  9.817E-03 0.000E+00

     total cpu time spent up to now is      517.0 secs

     total energy              =   -3503.78090339 Ry
     estimated scf accuracy    <       0.16977336 Ry

     iteration # 11     ecut=    80.00 Ry     beta= 0.20
     Davidson diagonalization with overlap

---- Real-time Memory Report at c_bands before calling an iterative solver
          1070 MiB given to the printing process from OS
             0 MiB allocation reported by mallinfo(arena+hblkhd)
        163377 MiB available memory on the node where the printing process lives
------------------
     ethr =  2.99E-05,  avg # of iterations =  2.0

     negative rho (up, down):  1.009E-02 0.000E+00

     total cpu time spent up to now is      558.0 secs

     total energy              =   -3503.76525781 Ry
     estimated scf accuracy    <       0.09708588 Ry

     iteration # 12     ecut=    80.00 Ry     beta= 0.20
     Davidson diagonalization with overlap

---- Real-time Memory Report at c_bands before calling an iterative solver
          1070 MiB given to the printing process from OS
             0 MiB allocation reported by mallinfo(arena+hblkhd)
        163375 MiB available memory on the node where the printing process lives
------------------
     ethr =  1.71E-05,  avg # of iterations = 11.0

     negative rho (up, down):  1.022E-02 0.000E+00

     total cpu time spent up to now is      603.7 secs

     total energy              =   -3503.76806025 Ry
     estimated scf accuracy    <       0.02014656 Ry

     iteration # 13     ecut=    80.00 Ry     beta= 0.20
     Davidson diagonalization with overlap

---- Real-time Memory Report at c_bands before calling an iterative solver
          1074 MiB given to the printing process from OS
             0 MiB allocation reported by mallinfo(arena+hblkhd)
        163374 MiB available memory on the node where the printing process lives
------------------
     ethr =  3.55E-06,  avg # of iterations = 14.0

     negative rho (up, down):  1.032E-02 0.000E+00

     total cpu time spent up to now is      650.4 secs

     total energy              =   -3503.76862879 Ry
     estimated scf accuracy    <       0.00430326 Ry

     iteration # 14     ecut=    80.00 Ry     beta= 0.20
     Davidson diagonalization with overlap

---- Real-time Memory Report at c_bands before calling an iterative solver
          1074 MiB given to the printing process from OS
             0 MiB allocation reported by mallinfo(arena+hblkhd)
        163370 MiB available memory on the node where the printing process lives
------------------
     ethr =  7.58E-07,  avg # of iterations =  3.0

     negative rho (up, down):  1.040E-02 0.000E+00

     total cpu time spent up to now is      694.3 secs

     total energy              =   -3503.76872491 Ry
     estimated scf accuracy    <       0.00097890 Ry

     iteration # 15     ecut=    80.00 Ry     beta= 0.20
     Davidson diagonalization with overlap

---- Real-time Memory Report at c_bands before calling an iterative solver
          1075 MiB given to the printing process from OS
             0 MiB allocation reported by mallinfo(arena+hblkhd)
        163365 MiB available memory on the node where the printing process lives
------------------
     ethr =  1.72E-07,  avg # of iterations =  4.0

     negative rho (up, down):  1.043E-02 0.000E+00

     total cpu time spent up to now is      740.8 secs

     total energy              =   -3503.76885050 Ry
     estimated scf accuracy    <       0.00009952 Ry

     iteration # 16     ecut=    80.00 Ry     beta= 0.20
     Davidson diagonalization with overlap

---- Real-time Memory Report at c_bands before calling an iterative solver
          1075 MiB given to the printing process from OS
             0 MiB allocation reported by mallinfo(arena+hblkhd)
        163364 MiB available memory on the node where the printing process lives
------------------
     ethr =  1.75E-08,  avg # of iterations =  5.0

     negative rho (up, down):  1.045E-02 0.000E+00

     total cpu time spent up to now is      785.8 secs

     total energy              =   -3503.76886311 Ry
     estimated scf accuracy    <       0.00002170 Ry

     iteration # 17     ecut=    80.00 Ry     beta= 0.20
     Davidson diagonalization with overlap

---- Real-time Memory Report at c_bands before calling an iterative solver
          1075 MiB given to the printing process from OS
             0 MiB allocation reported by mallinfo(arena+hblkhd)
        163361 MiB available memory on the node where the printing process lives
------------------
     ethr =  3.82E-09,  avg # of iterations =  4.0

     negative rho (up, down):  1.045E-02 0.000E+00

     total cpu time spent up to now is      833.5 secs

     total energy              =   -3503.76886514 Ry
     estimated scf accuracy    <       0.00000560 Ry

     iteration # 18     ecut=    80.00 Ry     beta= 0.20
     Davidson diagonalization with overlap

---- Real-time Memory Report at c_bands before calling an iterative solver
          1075 MiB given to the printing process from OS
             0 MiB allocation reported by mallinfo(arena+hblkhd)
        163356 MiB available memory on the node where the printing process lives
------------------
     ethr =  9.85E-10,  avg # of iterations =  4.0

     negative rho (up, down):  1.046E-02 0.000E+00

     total cpu time spent up to now is      877.5 secs

     total energy              =   -3503.76886563 Ry
     estimated scf accuracy    <       0.00000177 Ry

     iteration # 19     ecut=    80.00 Ry     beta= 0.20
     Davidson diagonalization with overlap

---- Real-time Memory Report at c_bands before calling an iterative solver
          1075 MiB given to the printing process from OS
             0 MiB allocation reported by mallinfo(arena+hblkhd)
        163354 MiB available memory on the node where the printing process lives
------------------
     ethr =  3.11E-10,  avg # of iterations =  2.0

     negative rho (up, down):  1.046E-02 0.000E+00

     total cpu time spent up to now is      926.7 secs

     End of self-consistent calculation

          k = 0.0000 0.0000 0.0000 (265753 PWs)   bands (ev):

   -59.3319 -59.3292 -59.3154 -59.3037 -59.2762 -59.2652 -59.2484 -59.2374
   -35.8772 -35.8759 -35.8570 -35.8556 -35.6274 -35.6215 -35.6101 -35.6066
   -35.6042 -35.5941 -35.5936 -35.5777 -35.5625 -35.5497 -35.5299 -35.5269
   -35.5101 -35.4963 -35.4733 -35.4696 -35.4031 -35.3931 -35.3741 -35.3706
   -24.1214 -24.0599 -24.0443 -24.0384 -23.8924 -23.8535 -23.8417 -23.8285
   -23.7455 -23.7242 -23.7173 -23.6838 -21.8068 -21.7386 -21.7313 -21.7237
   -21.5580 -21.5334 -21.5175 -21.4962 -21.4488 -21.4334 -21.4280 -21.4047
   -21.3652 -21.3236 -21.2943 -21.2520 -20.2217 -20.1870 -20.0722 -20.0502
   -20.0449 -20.0186 -19.1518 -19.1428 -19.1052 -19.1021 -18.9335 -18.9206
   -18.9064 -18.8991 -18.0765 -18.0252 -17.8933 -17.8734 -17.8523 -17.8337
   -16.1566 -16.1084 -15.9605 -15.9272 -15.8941 -15.8727 -15.1577 -15.1069
   -14.9818 -14.9629 -14.9438 -14.9243 -13.5438 -13.4962 -13.3435 -13.3087
   -13.2403 -13.2174 -12.1835 -12.1371 -12.0102 -11.9873 -11.9727 -11.9498
   -11.4600 -11.4128 -11.1891 -11.1638 -11.1355 -11.0792 -11.0604 -11.0449
   -10.9313 -10.8899 -10.8663 -10.8301 -10.1368 -10.1007  -9.9773  -9.9622
    -9.9478  -9.9258  -9.7243  -9.6855  -9.5663  -9.5081  -9.4575  -9.3721
    -9.3481  -9.2944  -9.2407  -9.1828  -9.1481  -9.1067  -9.0611  -9.0197
    -9.0034  -8.9716  -8.9287  -8.9063  -8.8929  -8.8578  -8.8194  -8.7998
    -8.7749  -8.7070  -8.6784  -8.5869  -8.5857  -8.5265  -8.4573  -8.4228
    -8.2831  -8.2674  -8.2497  -8.2449  -8.0906  -8.0242  -7.9652  -7.9485
    -7.9344  -7.9076  -7.8423  -7.8334  -7.7780  -7.7658  -7.6384  -7.6234
    -7.4823  -7.4405  -7.3703  -7.3348  -7.3144  -7.3096  -7.2722  -7.2549
    -7.1989  -7.1674  -7.1470  -7.1286  -6.8162  -6.7451  -6.5291  -6.4916
    -6.4750  -6.4566  -6.4335  -6.4113  -6.3947  -6.3504  -6.3334  -6.3172
    -6.2981  -6.2598  -6.2377  -6.1565  -6.0359  -5.9934  -5.9714  -5.8845
    -5.7777  -5.7326  -5.6954  -5.6876  -5.6516  -5.6326  -5.5663  -5.5368
    -5.4679  -5.4260  -5.3772  -5.3456  -5.3253  -5.3014  -5.2960  -5.2921
    -5.2664  -5.2446  -5.2105  -5.1638  -5.0573  -5.0089  -4.9441  -4.8874
    -4.7776  -4.7411  -4.7328  -4.6924  -4.6682  -4.6612  -4.6330  -4.6226
    -4.6014  -4.5763  -4.4971  -4.4849  -4.4477  -4.4194  -4.3674  -4.3115
    -4.2802  -4.2556  -4.2374  -4.2165  -4.1989  -4.1729  -4.1503  -4.1021
    -4.0927  -4.0823  -4.0742  -4.0629  -4.0040  -3.9677  -3.9659  -3.9540
    -3.9380  -3.9170  -3.8512  -3.7974  -3.7536  -3.7028  -3.6878  -3.6514
    -3.6052  -3.5279  -3.5208  -3.4824  -3.4435  -3.4336  -3.4151  -3.4079
    -3.3794  -3.3657  -3.2995  -3.2785  -3.2550  -3.2355  -2.1435  -2.0979
    -1.9702  -1.9408  -1.9353  -1.9269  -0.1871  -0.1481  -0.0284   0.0071
     0.0564   0.0781   0.1516   0.1583   0.1847   0.2395   0.3183   0.3530
     0.3875   0.4143   0.5148   0.5368   0.5794   0.6380   0.6521   0.6734
     0.7761   0.8328   0.8714   0.8900   0.9053   1.0223   1.0444   1.1840
     1.2064   1.2221   1.9890   2.0566   2.0995   2.1776   2.1847   2.2428
     2.2554   2.2635   2.2708   2.2879   2.3258   2.3599   2.3763   2.4149
     2.4671   2.6171   2.6532   2.6870   2.7302   2.8497   2.9072   2.9595
     2.9967   3.0058   3.0556   3.1084   3.1264

     occupation numbers 
     1.0000   1.0000   1.0000   1.0000   1.0000   1.0000   1.0000   1.0000
     1.0000   1.0000   1.0000   1.0000   1.0000   1.0000   1.0000   1.0000
     1.0000   1.0000   1.0000   1.0000   1.0000   1.0000   1.0000   1.0000
     1.0000   1.0000   1.0000   1.0000   1.0000   1.0000   1.0000   1.0000
     1.0000   1.0000   1.0000   1.0000   1.0000   1.0000   1.0000   1.0000
     1.0000   1.0000   1.0000   1.0000   1.0000   1.0000   1.0000   1.0000
     1.0000   1.0000   1.0000   1.0000   1.0000   1.0000   1.0000   1.0000
     1.0000   1.0000   1.0000   1.0000   1.0000   1.0000   1.0000   1.0000
     1.0000   1.0000   1.0000   1.0000   1.0000   1.0000   1.0000   1.0000
     1.0000   1.0000   1.0000   1.0000   1.0000   1.0000   1.0000   1.0000
     1.0000   1.0000   1.0000   1.0000   1.0000   1.0000   1.0000   1.0000
     1.0000   1.0000   1.0000   1.0000   1.0000   1.0000   1.0000   1.0000
     1.0000   1.0000   1.0000   1.0000   1.0000   1.0000   1.0000   1.0000
     1.0000   1.0000   1.0000   1.0000   1.0000   1.0000   1.0000   1.0000
     1.0000   1.0000   1.0000   1.0000   1.0000   1.0000   1.0000   1.0000
     1.0000   1.0000   1.0000   1.0000   1.0000   1.0000   1.0000   1.0000
     1.0000   1.0000   1.0000   1.0000   1.0000   1.0000   1.0000   1.0000
     1.0000   1.0000   1.0000   1.0000   1.0000   1.0000   1.0000   1.0000
     1.0000   1.0000   1.0000   1.0000   1.0000   1.0000   1.0000   1.0000
     1.0000   1.0000   1.0000   1.0000   1.0000   1.0000   1.0000   1.0000
     1.0000   1.0000   1.0000   1.0000   1.0000   1.0000   1.0000   1.0000
     1.0000   1.0000   1.0000   1.0000   1.0000   1.0000   1.0000   1.0000
     1.0000   1.0000   1.0000   1.0000   1.0000   1.0000   1.0000   1.0000
     1.0000   1.0000   1.0000   1.0000   1.0000   1.0000   1.0000   1.0000
     1.0000   1.0000   1.0000   1.0000   1.0000   1.0000   1.0000   1.0000
     1.0000   1.0000   1.0000   1.0000   1.0000   1.0000   1.0000   1.0000
     1.0000   1.0000   1.0000   1.0000   1.0000   1.0000   1.0000   1.0000
     1.0000   1.0000   1.0000   1.0000   1.0000   1.0000   1.0000   1.0000
     1.0000   1.0000   1.0000   1.0000   1.0000   1.0000   1.0000   1.0000
     1.0000   1.0000   1.0000   1.0000   1.0000   1.0000   1.0000   1.0000
     1.0000   1.0000   1.0000   1.0000   1.0000   1.0000   1.0000   1.0000
     1.0000   1.0000   1.0000   1.0000   1.0000   1.0000   1.0000   1.0000
     1.0000   1.0000   1.0000   1.0000   1.0000   1.0000   1.0000   1.0000
     1.0000   1.0000   1.0000   1.0000   1.0000   1.0000   1.0000   1.0000
     1.0000   1.0000   1.0000   1.0000   1.0000   1.0000   0.9887   0.9856
     0.9726   0.9685   0.9677   0.9664   0.0370   0.0309   0.0172   0.0143
     0.0109   0.0097   0.0064   0.0061   0.0052   0.0038   0.0023   0.0018
     0.0014   0.0012   0.0006   0.0005   0.0004   0.0002   0.0002   0.0002
     0.0001   0.0000   0.0000   0.0000   0.0000   0.0000   0.0000   0.0000
     0.0000   0.0000   0.0000   0.0000   0.0000   0.0000   0.0000   0.0000
     0.0000   0.0000   0.0000   0.0000   0.0000   0.0000   0.0000   0.0000
     0.0000   0.0000   0.0000   0.0000   0.0000   0.0000   0.0000   0.0000
     0.0000   0.0000   0.0000   0.0000   0.0000

     the Fermi energy is    -1.0464 ev

!    total energy              =   -3503.76886600 Ry
     estimated scf accuracy    <       0.00000043 Ry
     smearing contrib. (-TS)   =      -0.05112433 Ry
     internal energy E=F+TS    =   -3503.71774167 Ry

     The total energy is F=E-TS. E is the sum of the following terms:
     one-electron contribution =   -8377.38684374 Ry
     hartree contribution      =    4303.98128300 Ry
     xc contribution           =    -690.14287948 Ry
     ewald contribution        =    1898.67339635 Ry
     DFT-D3 Dispersion         =      -0.33442824 Ry
     one-center paw contrib.   =    -638.50826956 Ry
      -> PAW hartree energy AE =       0.00000000 Ry
      -> PAW hartree energy PS =       0.00000000 Ry
      -> PAW xc energy AE      =       0.00000000 Ry
      -> PAW xc energy PS      =       0.00000000 Ry
      -> total E_H with PAW    =    4303.98128300 Ry
      -> total E_XC with PAW   =    -690.14287948 Ry

     convergence has been achieved in  19 iterations

     negative rho (up, down):  1.046E-02 0.000E+00

     Forces acting on atoms (cartesian axes, Ry/au):

     atom    1 type  1   force =    -0.00024008    0.00002803   -0.00017087
     atom    2 type  1   force =    -0.00036263   -0.00007990   -0.00016069
     atom    3 type  1   force =    -0.00032651    0.00004969    0.00008277
     atom    4 type  1   force =    -0.00002135   -0.00034152    0.00000484
     atom    5 type  1   force =     0.00015379   -0.00003751   -0.00024237
     atom    6 type  1   force =    -0.00071190    0.00030848    0.00023764
     atom    7 type  1   force =    -0.00000084    0.00012014    0.00009121
     atom    8 type  1   force =     0.00027988    0.00006354   -0.00023205
     atom    9 type  4   force =     0.00008984    0.00033627   -0.00019956
     atom   10 type  4   force =     0.00005597    0.00050226    0.00024547
     atom   11 type  4   force =     0.00029422    0.00039340   -0.00016403
     atom   12 type  4   force =     0.00005836    0.00037659    0.00008231
     atom   13 type  4   force =     0.00016017   -0.00003658    0.00034432
     atom   14 type  4   force =    -0.00020131   -0.00010216    0.00002518
     atom   15 type  4   force =    -0.00023031    0.00013309    0.00024438
     atom   16 type  4   force =     0.00031479   -0.00019807   -0.00015154
     atom   17 type  4   force =     0.00001638   -0.00006184   -0.00024306
     atom   18 type  4   force =     0.00024292    0.00036238    0.00007938
     atom   19 type  4   force =     0.00035099    0.00028023    0.00027903
     atom   20 type  4   force =    -0.00023180   -0.00012598    0.00019527
     atom   21 type  4   force =    -0.00031552    0.00005223   -0.00032959
     atom   22 type  4   force =     0.00024295    0.00016379    0.00006314
     atom   23 type  4   force =    -0.00038715   -0.00050434    0.00024428
     atom   24 type  4   force =     0.00013539    0.00004450   -0.00046205
     atom   25 type  4   force =     0.00036871    0.00001073   -0.00027582
     atom   26 type  4   force =    -0.00016629   -0.00006632    0.00016182
     atom   27 type  4   force =    -0.00014152   -0.00013988   -0.00008857
     atom   28 type  4   force =    -0.00017665    0.00044246   -0.00019510
     atom   29 type  4   force =    -0.00058932    0.00015081    0.00006147
     atom   30 type  4   force =    -0.00012320    0.00009483    0.00000249
     atom   31 type  4   force =    -0.00066128   -0.00014089    0.00018493
     atom   32 type  4   force =     0.00001772   -0.00017411    0.00020379
     atom   33 type  4   force =    -0.00010861   -0.00011886   -0.00031698
     atom   34 type  4   force =    -0.00019934   -0.00008025   -0.00015321
     atom   35 type  4   force =    -0.00012412   -0.00010066   -0.00025636
     atom   36 type  4   force =     0.00018398    0.00000557   -0.00030228
     atom   37 type  4   force =     0.00009275    0.00027772    0.00035463
     atom   38 type  4   force =     0.00012850    0.00040790    0.00059666
     atom   39 type  4   force =    -0.00027817    0.00009368    0.00004545
     atom   40 type  4   force =    -0.00004196    0.00034796    0.00032760
     atom   41 type  4   force =     0.00001071   -0.00016574   -0.00001977
     atom   42 type  4   force =    -0.00014464    0.00006537   -0.00024372
     atom   43 type  3   force =     0.00045968   -0.00046701    0.00001759
     atom   44 type  3   force =    -0.00012720   -0.00016829   -0.00042097
     atom   45 type  3   force =     0.00017539   -0.00036670   -0.00013224
     atom   46 type  3   force =     0.00028746    0.00001351    0.00094453
     atom   47 type  3   force =     0.00072731   -0.00029076    0.00016468
     atom   48 type  3   force =    -0.00025993   -0.00029319    0.00032674
     atom   49 type  3   force =     0.00018539   -0.00034860    0.00024843
     atom   50 type  3   force =    -0.00076704   -0.00009757    0.00026946
     atom   51 type  3   force =     0.00032736    0.00007959    0.00014729
     atom   52 type  3   force =    -0.00017320    0.00016278    0.00011577
     atom   53 type  3   force =     0.00020631   -0.00024541   -0.00002416
     atom   54 type  3   force =    -0.00014722   -0.00011309   -0.00027843
     atom   55 type  3   force =     0.00029598    0.00023832   -0.00036148
     atom   56 type  3   force =    -0.00026651    0.00040065    0.00020984
     atom   57 type  3   force =     0.00033086   -0.00030613    0.00006367
     atom   58 type  3   force =     0.00002834    0.00009071   -0.00011307
     atom   59 type  3   force =    -0.00032587    0.00014295   -0.00064815
     atom   60 type  3   force =     0.00008841   -0.00008903    0.00019552
     atom   61 type  3   force =     0.00070616   -0.00042038   -0.00018416
     atom   62 type  3   force =    -0.00006278   -0.00008774    0.00043912
     atom   63 type  3   force =     0.00005001    0.00036905   -0.00024129
     atom   64 type  3   force =     0.00017649   -0.00003665    0.00013586
     atom   65 type  3   force =    -0.00006453   -0.00005497   -0.00009402
     atom   66 type  3   force =     0.00036828    0.00021664    0.00025190
     atom   67 type  3   force =    -0.00008691   -0.00004024   -0.00007468
     atom   68 type  3   force =     0.00024400   -0.00032575   -0.00014910
     atom   69 type  3   force =    -0.00029738    0.00009109    0.00028453
     atom   70 type  3   force =    -0.00010236    0.00003206    0.00004881
     atom   71 type  3   force =    -0.00006605   -0.00022494    0.00078898
     atom   72 type  3   force =     0.00006601    0.00055259   -0.00057564
     atom   73 type  3   force =    -0.00032486   -0.00041594    0.00040744
     atom   74 type  3   force =    -0.00010955   -0.00001293    0.00006120
     atom   75 type  3   force =    -0.00011230   -0.00042845    0.00027155
     atom   76 type  3   force =     0.00017004   -0.00014125   -0.00016947
     atom   77 type  3   force =    -0.00038094   -0.00012454   -0.00008077
     atom   78 type  3   force =    -0.00050857    0.00006688   -0.00009388
     atom   79 type  3   force =    -0.00005971    0.00017629    0.00020013
     atom   80 type  3   force =    -0.00048197   -0.00033833    0.00003997
     atom   81 type  3   force =    -0.00009290   -0.00000884    0.00006481
     atom   82 type  3   force =     0.00038894    0.00005660    0.00032359
     atom   83 type  3   force =     0.00073814    0.00022430    0.00003743
     atom   84 type  3   force =    -0.00006975   -0.00026926   -0.00011018
     atom   85 type  3   force =     0.00024132   -0.00014578    0.00045009
     atom   86 type  3   force =     0.00002985    0.00007773   -0.00034302
     atom   87 type  3   force =     0.00057405   -0.00030791    0.00034217
     atom   88 type  3   force =    -0.00036051   -0.00048979   -0.00000605
     atom   89 type  3   force =     0.00010366   -0.00009969   -0.00030532
     atom   90 type  3   force =    -0.00025053    0.00035535    0.00023181
     atom   91 type  2   force =    -0.00046593    0.00016590   -0.00005036
     atom   92 type  2   force =     0.00013745    0.00007979   -0.00033205
     atom   93 type  2   force =    -0.00016032    0.00033054    0.00013665
     atom   94 type  2   force =     0.00005593   -0.00055529   -0.00020196
     atom   95 type  2   force =     0.00026161    0.00009946   -0.00005548
     atom   96 type  2   force =    -0.00028289    0.00043619   -0.00010576
     atom   97 type  5   force =     0.00010352    0.00008758   -0.00063167
     atom   98 type  5   force =    -0.00005868   -0.00003130    0.00005713
     atom   99 type  5   force =    -0.00028178   -0.00010793   -0.00032078
     atom  100 type  5   force =    -0.00021408    0.00013345    0.00020216
     atom  101 type  5   force =     0.00063034    0.00023584   -0.00049114
     atom  102 type  5   force =     0.00010395    0.00011064   -0.00041068
     atom  103 type  5   force =    -0.00012216    0.00046969    0.00017288
     atom  104 type  5   force =     0.00044054    0.00011378   -0.00020089
     atom  105 type  5   force =    -0.00015388   -0.00025067   -0.00017021
     atom  106 type  5   force =     0.00002819   -0.00008247   -0.00042769
     atom  107 type  5   force =     0.00005159    0.00028700    0.00000376
     atom  108 type  5   force =     0.00000631   -0.00023633    0.00035772
     atom  109 type  5   force =    -0.00016240   -0.00034424    0.00055671
     atom  110 type  5   force =     0.00030102   -0.00036724    0.00032274
     atom  111 type  5   force =    -0.00019989    0.00032008   -0.00008262
     atom  112 type  5   force =     0.00003459    0.00048645   -0.00019770
     atom  113 type  5   force =    -0.00006852    0.00009325    0.00034101
     atom  114 type  5   force =     0.00003845   -0.00018493   -0.00056964
     atom  115 type  5   force =     0.00011850    0.00015841   -0.00041688
     atom  116 type  5   force =     0.00009017   -0.00008339    0.00010850
     atom  117 type  5   force =     0.00002401    0.00026006    0.00014129
     atom  118 type  5   force =    -0.00034561   -0.00035444    0.00018586
     atom  119 type  5   force =     0.00006402    0.00029707   -0.00012179
     atom  120 type  5   force =    -0.00000442   -0.00028947   -0.00005809
     atom  121 type  5   force =    -0.00012210    0.00004886   -0.00014522
     atom  122 type  5   force =     0.00046220    0.00036405    0.00011123
     atom  123 type  5   force =     0.00013111    0.00024047    0.00007855
     atom  124 type  5   force =    -0.00003600    0.00001005    0.00001885
     atom  125 type  5   force =    -0.00004811    0.00020692   -0.00004666
     atom  126 type  5   force =     0.00077969    0.00033968   -0.00053162
     atom  127 type  5   force =    -0.00021716    0.00025281    0.00012547
     atom  128 type  5   force =     0.00004944   -0.00004547   -0.00025230
     atom  129 type  5   force =    -0.00074520   -0.00028736    0.00028032
     atom  130 type  5   force =     0.00022858   -0.00053342   -0.00019887
     atom  131 type  5   force =     0.00037624   -0.00060891   -0.00025843
     atom  132 type  5   force =     0.00028731   -0.00049016    0.00045039
     The non-local contrib.  to forces
     atom    1 type  1   force =     0.04911008   -0.05042348   -0.04692197
     atom    2 type  1   force =    -0.04913164    0.05719776    0.04655878
     atom    3 type  1   force =     0.03853542   -0.02734117    0.06943504
     atom    4 type  1   force =    -0.03675772    0.03668931   -0.06841822
     atom    5 type  1   force =     0.05299779   -0.04076529    0.05810764
     atom    6 type  1   force =    -0.05540272    0.03374015   -0.05826574
     atom    7 type  1   force =    -0.03622053    0.03725864    0.06751751
     atom    8 type  1   force =     0.04051051   -0.05106149   -0.06504834
     atom    9 type  4   force =    -0.03643856    0.06821392   -0.01392763
     atom   10 type  4   force =    -0.07403245    0.00359428   -0.02384818
     atom   11 type  4   force =     0.07497774   -0.00477872    0.02375688
     atom   12 type  4   force =    -0.00054630    0.04371125    0.06569255
     atom   13 type  4   force =     0.00010361   -0.04422852   -0.06416127
     atom   14 type  4   force =    -0.03928593   -0.02138942    0.06352406
     atom   15 type  4   force =     0.03864040    0.02140127   -0.06545698
     atom   16 type  4   force =    -0.00284641   -0.03959074    0.06771648
     atom   17 type  4   force =    -0.03339784   -0.02021369   -0.06826748
     atom   18 type  4   force =    -0.07504943    0.00493767    0.02377879
     atom   19 type  4   force =     0.07443750   -0.00263599   -0.02225701
     atom   20 type  4   force =     0.03849764   -0.06584792   -0.01943484
     atom   21 type  4   force =    -0.02740266    0.10357263    0.00762774
     atom   22 type  4   force =     0.03196361   -0.10264701   -0.00297303
     atom   23 type  4   force =    -0.04150076   -0.06500425   -0.07454171
     atom   24 type  4   force =     0.04936095    0.05772339    0.07588268
     atom   25 type  4   force =     0.06128156   -0.04729128    0.01604018
     atom   26 type  4   force =    -0.06077960    0.04628447   -0.01476427
     atom   27 type  4   force =     0.01183944   -0.00888193   -0.07644096
     atom   28 type  4   force =    -0.01375825    0.00933609    0.07729181
     atom   29 type  4   force =    -0.06342007    0.04211997    0.01997455
     atom   30 type  4   force =     0.01628475   -0.01216044    0.07606800
     atom   31 type  4   force =     0.09770226   -0.00289670   -0.01986057
     atom   32 type  4   force =    -0.04372562   -0.07345032    0.05083363
     atom   33 type  4   force =     0.00088955    0.09990431   -0.00369317
     atom   34 type  4   force =    -0.00650221   -0.05417863   -0.08357758
     atom   35 type  4   force =    -0.04507197   -0.03264315    0.08283182
     atom   36 type  4   force =     0.08896580    0.04482789    0.00401711
     atom   37 type  4   force =    -0.09759100    0.00192602   -0.02063249
     atom   38 type  4   force =     0.04140700    0.07039960    0.05704993
     atom   39 type  4   force =     0.01608524   -0.01308233   -0.09780046
     atom   40 type  4   force =     0.06094710   -0.04077525    0.06815175
     atom   41 type  4   force =    -0.07772711    0.05958731   -0.02015243
     atom   42 type  4   force =     0.05348026   -0.04116713   -0.07409837
     atom   43 type  3   force =    -0.17346058    0.11943217   -0.20067078
     atom   44 type  3   force =     0.15711705   -0.10049864    0.19241975
     atom   45 type  3   force =    -0.14011935    0.12634466    0.21401637
     atom   46 type  3   force =     0.15204755   -0.13090354   -0.17535268
     atom   47 type  3   force =    -0.09308309    0.06496389    0.00353777
     atom   48 type  3   force =     0.06986676   -0.04606545    0.10652283
     atom   49 type  3   force =     0.00525233   -0.00246990    0.11399064
     atom   50 type  3   force =     0.08441792   -0.06637913   -0.08472819
     atom   51 type  3   force =    -0.22443024    0.13841796    0.05717351
     atom   52 type  3   force =    -0.03880120    0.03261829    0.06347124
     atom   53 type  3   force =     0.04594446   -0.03821823    0.26285368
     atom   54 type  3   force =     0.05348474   -0.03617376    0.04874868
     atom   55 type  3   force =    -0.05175094    0.03556954    0.03647292
     atom   56 type  3   force =     0.02762948   -0.01918064    0.07079861
     atom   57 type  3   force =    -0.05927396    0.04000157    0.03138522
     atom   58 type  3   force =    -0.03486459    0.01839203   -0.06506530
     atom   59 type  3   force =    -0.03900386    0.09402680   -0.02815281
     atom   60 type  3   force =    -0.06578092   -0.07812805    0.05116429
     atom   61 type  3   force =     0.03831924   -0.09771265   -0.03261806
     atom   62 type  3   force =     0.06646019    0.08039554    0.06164353
     atom   63 type  3   force =     0.00791072    0.12002064    0.01201893
     atom   64 type  3   force =    -0.00695735   -0.06469590    0.08314173
     atom   65 type  3   force =    -0.05660284   -0.03076274   -0.08666632
     atom   66 type  3   force =     0.09983168    0.05888796   -0.01226064
     atom   67 type  3   force =     0.15338995    0.20999671   -0.11897541
     atom   68 type  3   force =    -0.11735099   -0.21484378    0.09716753
     atom   69 type  3   force =    -0.16630040   -0.19914830   -0.16129963
     atom   70 type  3   force =     0.12368993    0.19769067    0.14742992
     atom   71 type  3   force =     0.01183900    0.27510977   -0.01041584
     atom   72 type  3   force =    -0.00609158   -0.29602817   -0.01368520
     atom   73 type  3   force =    -0.24378726   -0.16003841    0.01131034
     atom   74 type  3   force =     0.22223111    0.14355817    0.03462534
     atom   75 type  3   force =    -0.11174855    0.25007502   -0.02646341
     atom   76 type  3   force =    -0.06224365    0.03138092    0.00172869
     atom   77 type  3   force =     0.03962660   -0.06042349   -0.01134600
     atom   78 type  3   force =    -0.04857320   -0.04590892   -0.03920303
     atom   79 type  3   force =    -0.00303934   -0.07551650   -0.01725242
     atom   80 type  3   force =    -0.00529695   -0.02479755    0.06663130
     atom   81 type  3   force =    -0.02215602   -0.01391208   -0.06701595
     atom   82 type  3   force =    -0.06478547   -0.03922465    0.01252415
     atom   83 type  3   force =     0.11978579   -0.23969981   -0.05745589
     atom   84 type  3   force =     0.06662559   -0.03307883    0.00216597
     atom   85 type  3   force =    -0.03962830    0.05713792   -0.00517354
     atom   86 type  3   force =     0.05056500    0.05122032   -0.03108304
     atom   87 type  3   force =    -0.11358505   -0.09126489   -0.23354668
     atom   88 type  3   force =     0.00437753    0.00892152   -0.07137151
     atom   89 type  3   force =     0.00484859    0.01154617    0.06790231
     atom   90 type  3   force =    -0.02708448   -0.14500991    0.23122935
     atom   91 type  2   force =    -0.10658519   -0.35058470   -0.15681386
     atom   92 type  2   force =     0.19579694    0.22450454   -0.11029584
     atom   93 type  2   force =     0.10065656    0.30484739    0.11435917
     atom   94 type  2   force =     0.08119877    0.35067232   -0.09719823
     atom   95 type  2   force =     0.24295912   -0.08395294    0.08116551
     atom   96 type  2   force =     0.06981069   -0.03499213   -0.24805125
     atom   97 type  5   force =     1.34145281   -0.96802217   -0.94011396
     atom   98 type  5   force =    -1.26712094    1.07890458    1.16305095
     atom   99 type  5   force =    -0.80453099    0.50058706   -1.63662654
     atom  100 type  5   force =     1.00339323   -0.57229640    1.69965566
     atom  101 type  5   force =    -1.31674168    0.95643517   -1.12586305
     atom  102 type  5   force =     1.30399424   -1.02706999    1.14957955
     atom  103 type  5   force =    -0.92229246    0.69851697    1.62372677
     atom  104 type  5   force =     0.83157558   -0.80158379   -1.63500436
     atom  105 type  5   force =     0.55687315    0.80774136    0.12933280
     atom  106 type  5   force =    -0.64921318   -0.73971564   -0.01952993
     atom  107 type  5   force =    -0.45596919   -0.87090839    0.04057258
     atom  108 type  5   force =     0.53795053    0.81711903   -0.12088049
     atom  109 type  5   force =     0.61168397    0.80830037    0.03879319
     atom  110 type  5   force =    -0.51074371   -0.86486084    0.07019299
     atom  111 type  5   force =    -0.43925691   -0.83001581   -0.15206794
     atom  112 type  5   force =     0.36128693    0.87736905    0.06737979
     atom  113 type  5   force =    -1.74082054    0.63749368    0.10414899
     atom  114 type  5   force =     1.86808881   -0.47649425    0.02484889
     atom  115 type  5   force =    -1.16250032    1.46213794    0.25344125
     atom  116 type  5   force =     1.42856192   -1.23957052   -0.33164795
     atom  117 type  5   force =     0.02733737   -0.42956571    1.84818108
     atom  118 type  5   force =     0.20380410    0.63459143   -1.72651706
     atom  119 type  5   force =     0.47655615    0.42166551    1.74384416
     atom  120 type  5   force =    -0.31823676   -0.09788012   -1.85419500
     atom  121 type  5   force =     1.65462283   -0.66202101    0.24635726
     atom  122 type  5   force =    -1.80958977    0.53266387   -0.11098874
     atom  123 type  5   force =     1.12851346   -1.47813948    0.16887709
     atom  124 type  5   force =    -1.39600549    1.29046122   -0.18777452
     atom  125 type  5   force =     0.30402550    0.34052447   -1.79717477
     atom  126 type  5   force =    -0.34432956   -0.56285044    1.83442393
     atom  127 type  5   force =    -0.13250101   -0.48636323   -1.84401117
     atom  128 type  5   force =    -0.12213599    0.41175797    1.79852225
     atom  129 type  5   force =    -0.76651812   -0.99256367   -0.74254068
     atom  130 type  5   force =     0.67897597    1.06887769    0.73515212
     atom  131 type  5   force =    -0.11069030    1.43684091   -0.02507216
     atom  132 type  5   force =     0.03521870   -1.45126028   -0.06232694
     The ionic contribution  to forces
     atom    1 type  1   force =    -8.85343798    9.81527251    1.40554436
[...]
     atom   55 type  3   force =     0.00023813   -0.00031003   -0.00014490
     atom   56 type  3   force =    -0.00013451    0.00012432   -0.00001283
     atom   57 type  3   force =    -0.00000050    0.00001720   -0.00018599
     atom   58 type  3   force =     0.00007773   -0.00007021    0.00024344
     atom   59 type  3   force =     0.00037714    0.00015497   -0.00024845
     atom   60 type  3   force =    -0.00026526   -0.00014668    0.00026378
     atom   61 type  3   force =    -0.00031810   -0.00019874   -0.00016665
     atom   62 type  3   force =     0.00026198    0.00015849    0.00016133
     atom   63 type  3   force =     0.00004689    0.00033949    0.00007961
     atom   64 type  3   force =    -0.00001518   -0.00036667   -0.00016958
     atom   65 type  3   force =    -0.00039330   -0.00013805    0.00014196
     atom   66 type  3   force =     0.00035708    0.00009067   -0.00013404
     atom   67 type  3   force =     0.00049951    0.00043257   -0.00026964
     atom   68 type  3   force =    -0.00027786   -0.00043243    0.00027223
     atom   69 type  3   force =    -0.00037412   -0.00053363   -0.00022085
     atom   70 type  3   force =     0.00028974    0.00045224    0.00024400
     atom   71 type  3   force =     0.00017115    0.00060759   -0.00011104
     atom   72 type  3   force =    -0.00010034   -0.00063521   -0.00005063
     atom   73 type  3   force =    -0.00057932   -0.00037284   -0.00002051
     atom   74 type  3   force =     0.00052964    0.00029752    0.00002354
     atom   75 type  3   force =    -0.00000559    0.00024367   -0.00011174
     atom   76 type  3   force =     0.00017798   -0.00023274    0.00007785
     atom   77 type  3   force =    -0.00024560   -0.00005618   -0.00009336
     atom   78 type  3   force =     0.00027417    0.00016990    0.00019401
     atom   79 type  3   force =     0.00002066    0.00032498    0.00011844
     atom   80 type  3   force =    -0.00001298   -0.00015532   -0.00018158
     atom   81 type  3   force =    -0.00018899   -0.00006479    0.00018066
     atom   82 type  3   force =     0.00035786    0.00014996   -0.00013802
     atom   83 type  3   force =    -0.00000823   -0.00027875   -0.00007181
     atom   84 type  3   force =    -0.00013795    0.00023425    0.00005107
     atom   85 type  3   force =     0.00033531    0.00008060   -0.00009988
     atom   86 type  3   force =    -0.00030103   -0.00020155    0.00022518
     atom   87 type  3   force =    -0.00023365   -0.00015320   -0.00017370
     atom   88 type  3   force =     0.00012615    0.00005208    0.00027036
     atom   89 type  3   force =     0.00009002    0.00021663   -0.00030530
     atom   90 type  3   force =    -0.00001511   -0.00023007    0.00013518
     atom   91 type  2   force =    -0.00012822    0.00070370   -0.00019962
     atom   92 type  2   force =    -0.00010959   -0.00059307    0.00046684
     atom   93 type  2   force =    -0.00051828   -0.00042765   -0.00049899
     atom   94 type  2   force =     0.00006398   -0.00078456   -0.00014764
     atom   95 type  2   force =    -0.00039036    0.00038602   -0.00027195
     atom   96 type  2   force =    -0.00016306    0.00023929    0.00055168
     atom   97 type  5   force =    -0.00037314    0.00048931    0.00006428
     atom   98 type  5   force =     0.00048458   -0.00038377   -0.00027955
     atom   99 type  5   force =     0.00017804    0.00013538    0.00058500
     atom  100 type  5   force =    -0.00022427    0.00026069   -0.00055697
     atom  101 type  5   force =     0.00050862   -0.00047381    0.00020311
     atom  102 type  5   force =    -0.00045216    0.00036356   -0.00003498
     atom  103 type  5   force =     0.00003109   -0.00000997   -0.00063270
     atom  104 type  5   force =    -0.00009838    0.00017029    0.00070879
     atom  105 type  5   force =    -0.00012131    0.00011269   -0.00002036
     atom  106 type  5   force =     0.00014462   -0.00007157    0.00004753
     atom  107 type  5   force =    -0.00000356    0.00010973    0.00001425
     atom  108 type  5   force =     0.00003704   -0.00004986    0.00015954
     atom  109 type  5   force =    -0.00012130    0.00010554    0.00016529
     atom  110 type  5   force =     0.00010693    0.00003429   -0.00017639
     atom  111 type  5   force =     0.00023401   -0.00002267    0.00000911
     atom  112 type  5   force =    -0.00020325    0.00000403    0.00014070
     atom  113 type  5   force =     0.00068923    0.00054212   -0.00027325
     atom  114 type  5   force =    -0.00058287   -0.00032196    0.00029239
     atom  115 type  5   force =    -0.00033734   -0.00078380   -0.00014563
     atom  116 type  5   force =     0.00013120    0.00071804    0.00024256
     atom  117 type  5   force =     0.00037562    0.00064499   -0.00046535
     atom  118 type  5   force =    -0.00022920   -0.00072209    0.00009208
     atom  119 type  5   force =    -0.00065795   -0.00045425   -0.00016552
     atom  120 type  5   force =     0.00069470    0.00029879    0.00023600
     atom  121 type  5   force =    -0.00067370   -0.00052610   -0.00023872
     atom  122 type  5   force =     0.00067822    0.00036572    0.00016444
     atom  123 type  5   force =     0.00034033    0.00057417   -0.00042640
     atom  124 type  5   force =    -0.00011622   -0.00062316    0.00040008
     atom  125 type  5   force =    -0.00076599   -0.00040346    0.00016486
     atom  126 type  5   force =     0.00057721    0.00034946   -0.00030895
     atom  127 type  5   force =     0.00021116    0.00073531    0.00029449
     atom  128 type  5   force =    -0.00018171   -0.00083887   -0.00019629
     atom  129 type  5   force =     0.00020090   -0.00001668    0.00006386
     atom  130 type  5   force =    -0.00012003   -0.00007520    0.00003673
     atom  131 type  5   force =     0.00001301   -0.00006417   -0.00004441
     atom  132 type  5   force =     0.00005246    0.00008135    0.00004372

     Total force =     0.005547     Total SCF correction =     0.001047

     DFT-D3 dispersion Force =     0.007364
     SCF correction compared to forces is large: reduce conv_thr to get better values

     BFGS Geometry Optimization
     Energy error            =      0.0E+00 Ry
     Gradient error          =      9.4E-04 Ry/Bohr

     bfgs converged in   1 scf cycles and   0 bfgs steps
     (criteria: energy <  1.0E-04 Ry, force <  1.0E-03 Ry/Bohr)

     End of BFGS Geometry Optimization

     Final energy             =   -3503.7688659970 Ry
Begin final coordinates

ATOMIC_POSITIONS (angstrom)
Ti              -2.9824857469        2.2912700286       11.5574473471
Ti               8.1341454179        5.3737759392        1.9209555889
Ti               1.5883482088       -0.9881751188        9.6571520874
Ti               3.5252107350        8.6803884005        3.8073461573
Ti               1.8582738115        9.5913637033        1.8460574503
Ti               3.0776427577       -2.1327146915       11.6284568459
Ti              -1.5198826983        1.0254583011        9.6461068485
Ti               6.4442537157        6.4426933019        3.7716288646
H                3.6791746869        1.6766882853        7.1737822881
H               -0.0028025564       -3.9779923070        7.3946601393
H                5.1691444758       11.5007274510        6.0801807270
H               -2.9720629513        6.3021890780       11.3914314161
H                8.0063282793        1.2911915982        2.2060447438
H               -6.7523909850        0.7328862477       11.2207035775
H               11.8237952241        6.8715478777        2.1160864294
H                3.2509331272       -6.3223035414       11.3116236356
H               -2.0484374364        8.2048923129        2.1155510729
H                4.8332229057        3.6097767929        6.0615459755
H                0.0833941422        4.0074936392        7.4457107830
H               -3.6512032865       -1.7113001697        7.2683125903
H                2.7934484662        8.2009232092       -0.0670135050
H                7.0712024607        6.8401924663        0.1101575444
H                0.4667156345        0.7039255938       11.1911745243
H                4.4943903095        6.9532483081        2.2289169766
H                3.6850281083       -2.3371503302        6.1823739554
H                1.3840269210        9.8490456679        7.3154438041
H               -5.9934079279        4.1511972631        9.1390271922
H               10.9880632319        3.4287794944        4.4181890530
H               -3.5247201587        2.4948714044        6.0338981977
H               -1.0844593373       11.7450786725        4.3497187656
H                0.0831706690        6.2285938552        6.5904615315
H                1.5049927139        6.9685326720        5.8657025981
H                1.7019215889       12.8143668067        2.6283913504
H                7.9016345227       -0.7499814075        3.4167363777
H                7.5236914370       -0.3476299529       10.0979119587
H                6.1536993771       -1.1386864033       10.8728075283
H                9.9992896846        8.9914542306        6.3992866640
H                8.6040114123        8.2752248156        5.6022948997
H                8.1135067374        5.3208310697        8.6549502818
H                7.6399096699        5.6142123821        6.9840908149
H                7.0435023913       -4.9446690528        9.6055215230
H                5.7234017730       -3.9305041745       10.1739986239
C                8.8149522298        4.8792105631        4.7687587565
C               -3.7978166308        2.6998050932        8.7372668765
C                3.9659229067       -2.5557427665        8.7892976435
C                1.0667322503       10.1052308960        4.6822539276
C                9.6521746611        4.3132412571        5.8415568339
C               -4.6860385991        3.2785315528        7.6864444329
C                4.8167535745       -3.2089234959        7.7765630063
C                0.2298515139       10.7357222559        5.7449739896
C                9.3525020850        4.5070978458        7.2294251161
C               -4.4002946662        3.0745382731        6.3203991245
C                5.9120268456       -4.0630024030        8.1306017724
C               -0.8532080961       11.5701799570        5.3985392236
C                0.5383514393       10.4959556588        7.0781925259
C                4.5279379658       -2.9879613780        6.4136915338
C               10.7908028023        3.5621248205        5.4812382379
C               -5.7998336138        4.0112846256        8.0745990872
C                3.1344296154        4.9097547387        6.1491129207
C                1.8111840266        2.7486914531        7.3625841015
C                6.9058691779       10.2490458926        6.0652557578
C               -1.7603591031       -2.7545621492        7.3950039202
C                8.0801193614        1.3598857821        0.0703988138
C                1.8144212512       13.6950631019        0.1297845469
C               11.7620894406        6.7934078627       -0.0208157946
C               -1.8592431719        8.2898547069       -0.0382592858
C                3.8708314120        5.9838066057        5.4535334932
C                1.1056034003        1.6116450838        8.0294792146
C                6.2086554265        9.2106777906        5.2905780451
C               -1.0968258395       -1.6743935330        8.1816473233
C                8.1431005295        2.8501537432        0.0596778731
C                1.7713264420       12.2236710593        0.0875968500
C               10.4769782156        6.0701927133        0.0069444521
C               -0.5516125258        9.0130157597       -0.0014274764
C                1.7660580060        5.0524793795        6.5470794992
C                3.1633809715        2.6168145906        6.9884520263
C                6.2072148570       11.4259521847        6.4024278440
C               -1.0427697254       -3.8988189771        7.0751687666
C                8.0091281660        0.7002022158        1.2894479288
C               -2.9787177301        6.8950327611       12.3054701251
C               12.3478179315        7.1616880178        1.2065458244
C               -7.2793270040        0.4461651130       12.1322051826
C                8.2751333574       10.1072956907        6.4620317058
C               -3.1089117693       -2.6174038928        7.0065783666
C                3.7957945202        3.6881780484        6.3839965250
C                1.1296732351        3.9381359863        7.1436590348
C                7.5462010602       -0.3453415462       12.1524683822
C               -2.4994952951        7.9292787943        1.1645508178
C                3.2081597476       -6.8606680004       12.2563257587
C                1.8018724498       14.4265927302        1.3605615073
N                1.0729257095        6.2118025853        6.3909266236
N                1.7063547412       13.8289399728        2.5761080397
N                7.0622717931       -0.6865555996       10.9296886962
N                9.0113268498        8.9981413564        6.1899113754
N                8.2654389076        5.1943049645        7.6648808474
N                6.2566477637       -4.3416043046        9.4144785550
O                7.8006435704        5.6014883016        5.0938282602
O               -2.8488881437        1.9335901783        8.3659791061
O                4.2448078089       -2.7376449539       10.0344340981
O                0.7429177070       10.2861905780        3.4654501136
O                2.0763011539        9.4104610699        5.0561671081
O                2.9878002030       -1.8272099776        8.4092452926
O                9.1235088581        4.6425515800        3.5482509404
O               -4.0363320413        2.9998225760        9.9566636094
O                6.4640523532        4.9828866446        2.7367578916
O               -1.3888647097        2.5509360854       10.6747991096
O                7.8800150991        6.9926523435        2.6868100922
O               -2.8781487158        0.6034635973       10.8109718750
O                1.5939689725       -2.5487687842       10.6645023937
O                3.3815719584       10.1593036338        2.7786952821
O                2.8298832044       -0.4417986895       10.9039064704
O                2.2388907843        7.9901231464        2.6006213351
O                5.0997545665        5.7780195690        5.1552551809
O               -0.1427192166        1.7187117423        8.2379851873
O                6.8214035270        8.1376545454        4.9821935516
O               -1.8059198585       -0.6883217660        8.5570660405
O                3.2521212588       -4.0553510264       12.3298960879
O                1.6747833524       11.5651606208        1.1764321798
O                5.0473485605       -1.7395153997       12.2962050552
O               -0.0124578475        9.1722633831        1.1459627101
O                4.9916459725        9.4199407383        4.9389050832
O                0.1391293357       -1.7948809443        8.4496141260
O                3.2612268391        7.0691244584        5.1650571103
O                1.8102403469        0.6011808301        8.3589287619
O                9.9651344723        5.7805645496        1.1440765388
O               -4.9160403951        1.9120673870       12.3032149586
O                8.2108259369        3.4527288781        1.1734208242
O               -3.0277693292        4.1461748360       12.3457720729
O                4.9400965941        7.4809965886        2.9139910687
O                0.0885782729        0.1121335996       10.5177076021
O                7.3571001019        5.9113071829        0.0855316886
O                2.5487129992        9.1399892841       -0.0011319309
End final coordinates



     Writing all to output data dir ./tmp/MIL125_NH2_opt.save/ :
     XML data file, charge density, pseudopotentials, collected wavefunctions

     init_run     :     22.37s CPU     23.19s WALL (       1 calls)
     electrons    :    880.95s CPU    903.82s WALL (       1 calls)
     forces       :     15.28s CPU     16.29s WALL (       1 calls)
     force_dftd3  :      0.81s CPU      0.82s WALL (       1 calls)

     Called by init_run:
     wfcinit      :     15.79s CPU     15.97s WALL (       1 calls)
     wfcinit:atom :      0.04s CPU      0.06s WALL (       1 calls)
     wfcinit:wfcr :     15.52s CPU     15.63s WALL (       1 calls)
     potinit      :      1.35s CPU      1.44s WALL (       1 calls)
     hinit0       :      0.51s CPU      0.56s WALL (       1 calls)

     Called by electrons:
     c_bands      :    678.19s CPU    682.11s WALL (      19 calls)
     sum_band     :    147.10s CPU    155.90s WALL (      19 calls)
     v_of_rho     :     11.48s CPU     13.28s WALL (      20 calls)
     v_h          :      0.79s CPU      1.14s WALL (      20 calls)
     v_xc         :     11.27s CPU     12.78s WALL (      21 calls)
     newd         :     40.46s CPU     48.92s WALL (      20 calls)
     PAW_pot      :      2.24s CPU      2.25s WALL (      20 calls)
     mix_rho      :      1.94s CPU      2.03s WALL (      19 calls)
     energy_dftd3 :      0.58s CPU      0.58s WALL (       1 calls)

     Called by c_bands:
     init_us_2    :      3.32s CPU      3.38s WALL (      39 calls)
     cegterg      :    674.72s CPU    678.62s WALL (      19 calls)

     Called by sum_band:
     sum_band:wei :      0.00s CPU      0.00s WALL (      19 calls)
     sum_band:loo :    103.27s CPU    103.65s WALL (      19 calls)
     sum_band:buf :      0.00s CPU      0.00s WALL (      19 calls)
     sum_band:ini :      1.62s CPU      1.62s WALL (      19 calls)
     sum_band:cal :     50.84s CPU     50.97s WALL (      19 calls)
     sum_band:bec :      0.05s CPU      0.05s WALL (      19 calls)
     addusdens    :     43.02s CPU     51.31s WALL (      19 calls)
                                        0.00s GPU  (      19 calls)
     addusd:skk   :      2.96s CPU      5.15s WALL (      95 calls)
                                        0.00s GPU  (      95 calls)

     Called by *egterg:
     cdiaghg      :     17.56s CPU     17.68s WALL (     133 calls)
     cegterg:over :     60.45s CPU     60.61s WALL (     114 calls)
     cegterg:upda :     37.24s CPU     37.63s WALL (     114 calls)
     cegterg:last :    101.98s CPU    102.22s WALL (      41 calls)
     cdiaghg:chol :      1.12s CPU      1.12s WALL (     133 calls)
     cdiaghg:inve :      0.35s CPU      0.35s WALL (     133 calls)
     cdiaghg:para :      4.96s CPU      5.04s WALL (     266 calls)
     h_psi        :    365.83s CPU    367.81s WALL (     134 calls)
     s_psi        :     84.55s CPU     84.74s WALL (     134 calls)
     g_psi        :      0.52s CPU      0.52s WALL (     114 calls)

     Called by h_psi:
     h_psi:calbec :    111.41s CPU    111.70s WALL (     134 calls)
     vloc_psi     :    168.82s CPU    169.75s WALL (     134 calls)
     add_vuspsi   :     84.64s CPU     84.84s WALL (     134 calls)

     General routines
     calbec       :    169.62s CPU    170.05s WALL (     157 calls)
     fft          :      9.32s CPU     10.42s WALL (     269 calls)
     ffts         :      0.71s CPU      0.77s WALL (      39 calls)
     fftw         :    144.81s CPU    145.56s WALL (   37931 calls)
     interpolate  :      1.32s CPU      1.38s WALL (      20 calls)

     Parallel routines

     PAW routines
     PAW_pot      :      2.24s CPU      2.25s WALL (      20 calls)

     PWSCF        :  15m19.70s CPU  15m45.92s WALL


   This run was terminated on:  17: 1:16  13Apr2025            

=------------------------------------------------------------------------------=
   JOB DONE.
=------------------------------------------------------------------------------=
Note: The following floating-point exceptions are signalling: IEEE_DENORMAL
Note: The following floating-point exceptions are signalling: IEEE_DENORMAL
