
                                 *****************
                                 * O   R   C   A *
                                 *****************

                                            #,                                       
                                            ###                                      
                                            ####                                     
                                            #####                                    
                                            ######                                   
                                           ########,                                 
                                     ,,################,,,,,                         
                               ,,#################################,,                 
                          ,,##########################################,,             
                       ,#########################################, ''#####,          
                    ,#############################################,,   '####,        
                  ,##################################################,,,,####,       
                ,###########''''           ''''###############################       
              ,#####''   ,,,,##########,,,,          '''####'''          '####       
            ,##' ,,,,###########################,,,                        '##       
           ' ,,###''''                  '''############,,,                           
         ,,##''                                '''############,,,,        ,,,,,,###''
      ,#''                                            '''#######################'''  
     '                                                          ''''####''''         
             ,#######,   #######,   ,#######,      ##                                
            ,#'     '#,  ##    ##  ,#'     '#,    #''#        ,####,   ,####,        
            ##       ##  ##   ,#'  ##            #'  '#       #'       #'  '#        
            ##       ##  #######   ##           ,######,      #####,   #    #        
            '#,     ,#'  ##    ##  '#,     ,#' ,#      #,     #,   #   #,  ,#        
             '#######'   ##     ##  '#######'  #'      '#     '####' # '####'        



                #########################################################
                #                        -***-                          #
                #          Department of theory and spectroscopy        #
                #                                                       #
                #                      Frank Neese                      #
                #                                                       #
                #     Directorship, Architecture, Infrastructure        #
                #                    SHARK, DRIVERS                     #
                #        Core code/Algorithms in most modules           #
                #                                                       #
                #        Max Planck Institute fuer Kohlenforschung      #
                #                Kaiser Wilhelm Platz 1                 #
                #                 D-45470 Muelheim/Ruhr                 #
                #                      Germany                          #
                #                                                       #
                #                  All rights reserved                  #
                #                        -***-                          #
                #########################################################


                         Program Version 6.0.1  -  RELEASE   -


 With contributions from (in alphabetic order):
[Max-Planck-Institut fuer Kohlenforschung]                               
  Daniel Aravena         : Magnetic Suceptibility                        
  Michael Atanasov       : Ab Initio Ligand Field Theory (pilot matlab implementation)
  Alexander A. Auer      : GIAO ZORA, VPT2 properties, NMR spectrum      
  Ute Becker             : All parallelization in ORCA, NUMFREQ, NUMCALC 
  Giovanni Bistoni       : ED, misc. LED, open-shell LED, HFLD           
  Martin Brehm           : Molecular dynamics                            
  Dmytro Bykov           : pre 5.0 version of the SCF Hessian            
  Marcos Casanova-Páez   : Triplet and SCS-CIS(D). UHF-(DLPNO)-IP/EA/STEOM-CCSD. UHF-CVS-IP/STEOM-CCSD   
  Vijay G. Chilkuri      : MRCI spin determinant printing, contributions to CSF-ICE 
  Pauline Colinet        : FMM embedding                                 
  Dipayan Datta          : RHF DLPNO-CCSD density                        
  Achintya Kumar Dutta   : EOM-CC, STEOM-CC                              
  Nicolas Foglia         : Exact transition moments, OPA infrastructure, MCD improvements    
  Dmitry Ganyushin       : Spin-Orbit,Spin-Spin,Magnetic field MRCI      
  Miquel Garcia-Rates    : C-PCM and meta-GGA Hessian, CCSD/C-PCM, Gaussian charge scheme 
  Tiago L. C. Gouveia    : GS-ROHF, GS-ROCIS                             
  Yang Guo               : DLPNO-NEVPT2, F12-NEVPT2, CIM, IAO-localization        
  Andreas Hansen         : Spin unrestricted coupled pair/coupled cluster methods 
  Ingolf Harden          : AUTO-CI MPn and infrastructure                
  Benjamin Helmich-Paris : MC-RPA, TRAH-(SCF,CASSCF), AVAS, COSX integrals, SCF dyn. polar. 
  Lee Huntington         : MR-EOM, pCC                                   
  Robert Izsak           : Overlap fitted RIJCOSX, COSX-SCS-MP3, EOM     
  Riya Kayal             : Wick's Theorem for AUTO-CI, AUTO-CI UHF-CCSDT 
  Emily Kempfer          : AUTO-CI, RHF CISDT and CCSDT                  
  Christian Kollmar      : KDIIS, OOCD, Brueckner-CCSD(T), CCSD density, CASPT2, CASPT2-K, improved NEVPT2 
  Axel Koslowski         : Symmetry handling                             
  Simone Kossmann        : meta-GGA functionals, TD-DFT gradient, OOMP2, (MP2 Hessian; deprecated post 5.0) 
  Lucas Lang             : DCDCAS                                        
  Marvin Lechner         : AUTO-CI (C++ implementation), FIC-MRCC        
  Spencer Leger          : CASSCF response                               
  Dagmar Lenk            : GEPOL surface, SMD, ORCA-2-JSON               
  Dimitrios Liakos       : Extrapolation schemes; Compound Job, initial MDCI parallelization 
  Dimitrios Manganas     : Further ROCIS development; embedding schemes. LFT, Crystal Embedding 
  Dimitrios Pantazis     : SARC Basis sets                               
  Anastasios Papadopoulos: AUTO-CI, single reference methods and gradients 
  Taras Petrenko         : pre 6.0 DFT Hessian and TD-DFT gradient, (ASA, deprecated), ECA, 1-Electron XAS/XES, NRVS 
  Peter Pinski           : DLPNO-MP2, DLPNO-MP2 Gradient                 
  Christoph Reimann      : Effective Core Potentials                     
  Marius Retegan         : Local ZFS, SOC                                
  Christoph Riplinger    : Optimizer, TS searches, QM/MM, DLPNO-CCSD(T), (RO)-DLPNO pert. Triples 
  Michael Roemelt        : Original ROCIS implementation                 
  Masaaki Saitow         : Open-shell DLPNO-CCSD energy and density      
  Barbara Sandhoefer     : DKH picture change effects                    
  Kantharuban Sivalingam : CASSCF convergence/infrastructure, NEVPT2 and variants, FIC-MRCI 
  Bernardo de Souza      : ESD, SOC TD-DFT                               
  Georgi L. Stoychev     : AutoAux, RI-MP2 NMR, DLPNO-MP2 response, X2C  
  Van Anh Tran           : RI-MP2 g-tensors                              
  Willem Van den Heuvel  : Paramagnetic NMR                              
  Zikuan Wang            : NOTCH, Electric field optimization            
  Frank Wennmohs         : Technical directorship and infrastructure     
  Hang Xu                : AUTO-CI-Response properties                   
                                                                         
[FACCTs GmbH]                                                            
  Markus Bursch, Miquel Garcia-Rates, Christoph Riplinger, Bernardo de Souza, Georgi L. Stoychev 
                                                                 
  APM, Basis sets (HGBS, AHGBS, def-TZVP (Ac-Lr), def2-XVPD (La-Lu)), CI-OPT, improved COSX, DLPNO-Multilevel,           
  DOCKER, DRACO, updates on ESD, GOAT, IRC, LR-CPCM, MBIS, meta-GGA TD-DFT gradient, ML-optimized integration grids, 
  MM, NACMEs, nearIR, NEB, NEB-TS, NL-DFT gradient (VV10), 2- and 3-layer-ONIOM, interface openCOSMO-RS, QMMM,   
  Crystal-QMMM, SF, symmetry and pop. for TD-DFT, r2SCAN hybrids, SOLVATOR                                   
                                                                         
[Other institutions]                                                     
  V. Asgeirsson          : NEB                                           
  Christoph Bannwarth    : sTDA-DFT, sTD-DFT, PBEh-3c, B97-3c, D3        
  Sebastian Ehlert       : rSCAN, r2SCAN, r2SCAN-3c, D4, dhf basis sets  
  Marvin Friede          : D4 for Fr, Ra, Ac-Lr                          
  Lars Goerigk           : TD-DFT with DH, B97 family of functionals     
  Stefan Grimme          : VdW corrections, initial TS optimization, DFT functionals, gCP, sTDA/sTD-DF 
  Waldemar Hujo          : DFT-NL                                        
  H. Jonsson             : NEB                                           
  Holger Kruse           : gCP                                           
  Marcel Mueller         : wB97X-3c, vDZP basis set                      
  Hagen Neugebauer       : wr2SCAN                                       
  Tobias Risthaus        : range-separated hybrid DFT                    
  Lukas Wittmann         : regularized MP2, r2SCAN double-hybrids, wr2SCAN        
                                                                         
We gratefully acknowledge several colleagues who have allowed us to      
interface, adapt or use parts of their codes:                            
  Ed Valeev, F. Pavosevic, A. Kumar             : LibInt (2-el integral package), F12 methods 
  Garnet Chan, S. Sharma, J. Yang, R. Olivares  : DMRG                   
  Ulf Ekstrom                                   : XCFun DFT Library      
  Mihaly Kallay                                 : mrcc  (arbitrary order and MRCC methods)
  Frank Weinhold                                : gennbo (NPA and NBO analysis)           
  Simon Mueller                                 : openCOSMO-RS                            
  Christopher J. Cramer and Donald G. Truhlar   : smd solvation model                     
  S Lehtola, MJT Oliveira, MAL Marques          : LibXC Library                           
  Liviu Ungur et al                             : ANISO software                          


 Your calculation uses the libint2 library for the computation of 2-el integrals
 For citations please refer to: http://libint.valeyev.net

 Your ORCA version has been built with support for libXC version: 6.2.2
 For citations please refer to: https://libxc.gitlab.io

 This ORCA versions uses:
   CBLAS   interface :  Fast vector & matrix operations
   LAPACKE interface :  Fast linear algebra routines
   SCALAPACK package :  Parallel linear algebra routines
   Shared memory     :  Shared parallel matrices
   BLAS/LAPACK       :  OpenBLAS 0.3.27  USE64BITINT DYNAMIC_ARCH NO_AFFINITY SkylakeX SINGLE_THREADED
        Core in use  :  SkylakeX
   Copyright (c) 2011-2014, The OpenBLAS Project


NOTE: MaxCore=5000 MB was set to SCF,MP2,MDCI,CIPSI,MRCI and CIS
      => If you want to overwrite this, your respective input block should be placed after the MaxCore statement
Your calculation utilizes the atom-pairwise dispersion correction
based on EEQ partial charges (D4)


Warning: RI is on but no J-basis has been assigned. Assigning Def2/J (nothing to worry about!)
================================================================================

----- Orbital basis set information -----
Your calculation utilizes the basis: def2-TZVP
   F. Weigend and R. Ahlrichs, Phys. Chem. Chem. Phys. 7, 3297 (2005).

----- AuxJ basis set information -----
Your calculation utilizes the auxiliary basis: def2/J
   F. Weigend, Phys. Chem. Chem. Phys. 8, 1057 (2006).

================================================================================
                                        WARNINGS
                       Please study these warnings very carefully!
================================================================================


WARNING: Geometry Optimization
  ===> : Switching off AutoStart
         For restart on a previous wavefunction, please use MOREAD

================================================================================
                                       INPUT FILE
================================================================================
NAME = cluster_2_IONIC_LIQUID0001_final_coord.inp
|  1> ! Opt B3LYP D4 def2-TZVP TightSCF TightOpt
|  2> 
|  3> %maxcore 5000
|  4> 
|  5> %pal
|  6> nprocs 15
|  7> end
|  8> 
|  9> * xyz 0 1
| 10> S -0.698665 1.044227 3.828845
| 11> S 2.086868 1.224691 4.123532
| 12> F -0.877109 1.371070 6.438334
| 13> F -2.774269 1.476856 5.262198
| 14> F -1.873276 -0.506512 5.750120
| 15> F 3.135863 -1.048063 5.120325
| 16> F 4.172168 0.707829 5.864042
| 17> F 2.210061 0.150485 6.669961
| 18> O -1.430836 0.224832 2.860902
| 19> O -0.637353 2.487318 3.604502
| 20> O 1.995329 2.605344 4.618728
| 21> O 2.719374 0.999323 2.793665
| 22> N 0.712353 0.384622 4.021594
| 23> C -1.597233 0.776150 5.404317
| 24> C 2.917424 0.201857 5.496335
| 25> N 1.402676 -0.000000 -0.000000
| 26> N 0.617890 2.083006 0.014043
| 27> C 2.273868 -1.118182 -0.072762
| 28> C 3.254993 -1.039035 -1.289779
| 29> C 3.787903 -2.434323 -1.687621
| 30> C 1.767550 1.321767 0.000000
| 31> C 0.000000 0.000000 -0.000000
| 32> C -0.483433 1.322164 -0.097339
| 33> C 2.757301 -3.397852 -2.247686
| 34> C 0.448215 3.484169 0.199927
| 35> H 1.630384 -1.999055 -0.018084
| 36> H 2.808703 -1.127296 0.889771
| 37> H 2.791379 -0.529898 -2.128195
| 38> H 4.070291 -0.334736 -1.106336
| 39> H 4.319743 -2.716109 -0.780239
| 40> H 4.459761 -2.203680 -2.532612
| 41> H 2.699055 1.795162 0.252577
| 42> H -0.465895 -0.969844 0.104139
| 43> H -1.464843 1.776776 -0.001617
| 44> H 3.328709 -4.186866 -2.756656
| 45> H 2.168355 -4.003715 -1.548420
| 46> H 2.059920 -2.914668 -2.950532
| 47> H -0.052828 3.960363 -0.642211
| 48> H 1.431193 3.954174 0.314160
| 49> H -0.049049 3.636494 1.165549
| 50> *
| 51> 
| 52>                          ****END OF INPUT****
================================================================================

                       *****************************
                       * Geometry Optimization Run *
                       *****************************

Geometry optimization settings:
Update method            Update   .... BFGS
Choice of coordinates    CoordSys .... (2022) Redundant Internals
Initial Hessian          InHess   .... Almloef's Model
Max. no of cycles        MaxIter  .... 120

Convergence Tolerances:
Energy Change            TolE     ....  1.0000e-06 Eh
Max. Gradient            TolMAXG  ....  1.0000e-04 Eh/bohr
RMS Gradient             TolRMSG  ....  3.0000e-05 Eh/bohr
Max. Displacement        TolMAXD  ....  1.0000e-03 bohr
RMS Displacement         TolRMSD  ....  6.0000e-04 bohr
Strict Convergence                .... False

------------------------------------------------------------------------------
                        ORCA OPTIMIZATION COORDINATE SETUP
------------------------------------------------------------------------------

The optimization will be done in redundant internal coordinates (2022)
Making redundant internal coordinates   ...  (2022 redundants) done
Evaluating the initial hessian          ...  (Almloef) done
Evaluating the coordinates              ...  done
Calculating the B-matrix                .... done
Calculating the G-matrix                .... done
Diagonalizing the G-matrix              .... done
Small eigenvalue found = 7.146e-03
Small eigenvalue found = 1.385e-02
Small eigenvalue found = 2.346e-02
Small eigenvalue found = 2.460e-02
Small eigenvalue found = 2.552e-02
The first mode is                       ....  139
The number of degrees of freedom        ....  114

    -----------------------------------------------------------------
                    Redundant Internal Coordinates


    -----------------------------------------------------------------
         Definition                    Initial Value    Approx d2E/dq
    -----------------------------------------------------------------
      1. B(O   8,S   0)                  1.4644         1.148105   
      2. B(O   9,S   0)                  1.4617         1.159397   
      3. B(O  10,S   1)                  1.4696         1.126172   
      4. B(O  11,S   1)                  1.4898         1.045861   
      5. B(N  12,S   0)                  1.5695         0.780418   
      6. B(N  12,S   1)                  1.6141         0.662318   
      7. B(C  13,S   0)                  1.8334         0.330423   
      8. B(C  13,F   3)                  1.3772         0.545047   
      9. B(C  13,F   4)                  1.3568         0.587326   
     10. B(C  13,F   2)                  1.3934         0.513410   
     11. B(C  14,F   7)                  1.3713         0.556979   
     12. B(C  14,S   1)                  1.9028         0.256086   
     13. B(C  14,F   6)                  1.4020         0.497536   
     14. B(C  14,F   5)                  1.3234         0.664073   
     15. B(N  15,O  11)                  3.2461         0.000548   
     16. B(C  17,N  15)                  1.4194         0.502370   
     17. B(C  18,C  17)                  1.5652         0.328202   
     18. B(C  19,C  18)                  1.5457         0.352675   
     19. B(C  20,O  11)                  2.9689         0.001694   
     20. B(C  20,N  16)                  1.3789         0.582860   
     21. B(C  20,N  15)                  1.3712         0.599602   
     22. B(C  21,O   8)                  3.2066         0.000707   
     23. B(C  21,N  15)                  1.4027         0.534136   
     24. B(C  22,C  21)                  1.4111         0.578123   
     25. B(C  22,N  16)                  1.3432         0.664560   
     26. B(C  22,O   8)                  3.2944         0.000512   
     27. B(C  23,C  19)                  1.5180         0.390470   
     28. B(C  24,N  16)                  1.4236         0.494640   
     29. B(H  25,C  17)                  1.0922         0.357143   
     30. B(H  26,C  17)                  1.1012         0.345608   
     31. B(H  26,O  11)                  2.8557         0.000491   
     32. B(H  27,C  18)                  1.0849         0.366853   
     33. B(H  28,C  18)                  1.0929         0.356303   
     34. B(H  29,C  19)                  1.0889         0.361622   
     35. B(H  30,C  19)                  1.1039         0.342171   
     36. B(H  31,C  20)                  1.0750         0.380517   
     37. B(H  31,N  16)                  2.1145         0.007483   
     38. B(H  31,O  11)                  2.6629         0.000998   
     39. B(H  32,N  15)                  2.1078         0.007668   
     40. B(H  32,O   8)                  3.1556         0.000163   
     41. B(H  32,C  21)                  1.0810         0.372243   
     42. B(H  33,N  16)                  2.1052         0.007743   
     43. B(H  33,O   8)                  3.2563         0.000113   
     44. B(H  33,C  22)                  1.0858         0.365675   
     45. B(H  34,C  23)                  1.0991         0.348214   
     46. B(H  35,C  23)                  1.0968         0.351257   
     47. B(H  36,C  23)                  1.1017         0.344918   
     48. B(H  37,C  24)                  1.0895         0.360768   
     49. B(H  38,C  24)                  1.0955         0.352850   
     50. B(H  39,N  16)                  2.0455         0.009641   
     51. B(H  39,O   9)                  2.7596         0.000700   
     52. B(H  39,C  24)                  1.0968         0.351257   
     53. A(O   9,S   0,N  12)          113.3321         0.562025   
     54. A(O   9,S   0,C  13)          107.2655         0.481149   
     55. A(O   8,S   0,C  13)          103.9535         0.480281   
     56. A(O   8,S   0,O   9)          118.1608         0.605215   
     57. A(O   8,S   0,N  12)          107.1890         0.560979   
     58. A(N  12,S   0,C  13)          105.8812         0.447544   
     59. A(O  10,S   1,C  14)          106.8033         0.456740   
     60. A(N  12,S   1,C  14)           97.9031         0.415108   
     61. A(O  11,S   1,C  14)          112.1723         0.450633   
     62. A(O  11,S   1,N  12)          103.0873         0.534272   
     63. A(O  10,S   1,N  12)          117.2052         0.541791   
     64. A(O  10,S   1,O  11)          117.9923         0.591116   
     65. A(S   0,O   8,C  21)          113.9449         0.179202   
     66. A(C  21,O   8,C  22)           25.0263         0.103685   
     67. A(S   0,O   8,C  22)          105.2707         0.172857   
     68. A(S   1,O  11,C  20)          133.4270         0.196620   
     69. A(S   1,O  11,N  15)          129.9871         0.171665   
     70. A(N  15,O  11,C  20)           24.9825         0.107017   
     71. A(S   0,N  12,S   1)          123.6840         0.505722   
     72. A(F   2,C  13,F   4)          108.6400         0.406685   
     73. A(F   2,C  13,F   3)          107.5201         0.401358   
     74. A(S   0,C  13,F   4)          117.1898         0.401006   
     75. A(S   0,C  13,F   2)          108.7807         0.391651   
     76. A(S   0,C  13,F   3)          104.8216         0.395775   
     77. A(F   3,C  13,F   4)          109.4757         0.411014   
     78. A(S   1,C  14,F   5)          112.0093         0.391819   
     79. A(F   6,C  14,F   7)          104.5197         0.400669   
     80. A(F   5,C  14,F   7)          107.0336         0.421717   
     81. A(S   1,C  14,F   7)          114.3592         0.380002   
     82. A(F   5,C  14,F   6)          105.5245         0.413326   
     83. A(S   1,C  14,F   6)          112.6980         0.372663   
     84. A(O  11,N  15,C  20)           66.1280         0.157019   
     85. A(C  17,N  15,C  21)          127.8640         0.401890   
     86. A(C  17,N  15,C  20)          126.5891         0.410186   
     87. A(C  20,N  15,C  21)          105.4322         0.414675   
     88. A(O  11,N  15,C  17)           92.1594         0.154349   
     89. A(O  11,N  15,C  21)          113.9306         0.155262   
     90. A(C  20,N  16,C  24)          130.0955         0.407016   
     91. A(C  22,N  16,C  24)          118.0744         0.416600   
     92. A(C  20,N  16,C  22)          111.7190         0.428998   
     93. A(C  18,C  17,H  25)          116.6786         0.317096   
     94. A(N  15,C  17,C  18)          112.6287         0.371558   
     95. A(H  25,C  17,H  26)          103.6334         0.288599   
     96. A(C  18,C  17,H  26)          112.0617         0.315407   
     97. A(N  15,C  17,H  26)          105.0596         0.336257   
     98. A(N  15,C  17,H  25)          105.7341         0.338101   
     99. A(C  17,C  18,C  19)          111.7522         0.351978   
    100. A(H  27,C  18,H  28)           98.3994         0.291204   
    101. A(C  19,C  18,H  28)          111.5763         0.320716   
    102. A(C  17,C  18,H  28)          111.6963         0.316975   
    103. A(C  19,C  18,H  27)          111.8416         0.322251   
    104. A(C  17,C  18,H  27)          110.8995         0.318485   
    105. A(H  29,C  19,H  30)          113.2461         0.288710   
    106. A(C  23,C  19,H  30)          105.2728         0.323955   
    107. A(C  18,C  19,H  30)          102.6065         0.318603   
    108. A(C  23,C  19,H  29)          118.3477         0.326913   
    109. A(C  18,C  19,H  29)          100.8082         0.321494   
    110. A(C  18,C  19,C  23)          115.7141         0.362524   
    111. A(N  15,C  20,N  16)          108.0771         0.421174   
    112. A(N  16,C  20,H  31)          118.4868         0.350345   
    113. A(N  15,C  20,H  31)          130.9254         0.352026   
    114. A(O  11,C  20,H  31)           63.1879         0.158671   
    115. A(O  11,C  20,N  16)          108.5220         0.176987   
    116. A(O  11,C  20,N  15)           88.8895         0.177553   
    117. A(C  22,C  21,H  32)          134.3967         0.350722   
    118. A(N  15,C  21,H  32)          115.5308         0.343960   
    119. A(O   8,C  21,H  32)           77.5634         0.145891   
    120. A(O   8,C  21,C  22)           80.9662         0.161671   
    121. A(O   8,C  21,N  15)          116.5007         0.159793   
    122. A(N  15,C  21,C  22)          110.0344         0.414677   
    123. A(C  21,C  22,H  33)          134.0947         0.349669   
    124. A(N  16,C  22,H  33)          119.7763         0.355808   
    125. A(O   8,C  22,H  33)           78.4846         0.141677   
    126. A(O   8,C  22,C  21)           74.0075         0.156559   
    127. A(O   8,C  22,N  16)          110.4879         0.158150   
    128. A(N  16,C  22,C  21)          104.1294         0.431186   
    129. A(H  34,C  23,H  36)          110.3949         0.287368   
    130. A(C  19,C  23,H  36)          112.7528         0.324380   
    131. A(H  34,C  23,H  35)          100.2446         0.288188   
    132. A(C  19,C  23,H  35)          118.6844         0.325353   
    133. A(C  19,C  23,H  34)          105.8755         0.324888   
    134. A(H  35,C  23,H  36)          108.0051         0.287759   
    135. A(H  38,C  24,H  39)          104.7985         0.288785   
    136. A(H  37,C  24,H  39)          114.2880         0.289791   
    137. A(N  16,C  24,H  39)          107.8001         0.336296   
    138. A(H  37,C  24,H  38)          107.8014         0.289997   
    139. A(N  16,C  24,H  38)          109.2040         0.336550   
    140. A(N  16,C  24,H  37)          112.5864         0.337796   
    141. D(C  22,O   8,S   0,O   9)     44.8435         0.037211   
    142. D(C  21,O   8,S   0,C  13)   -171.5023         0.037211   
    143. D(C  21,O   8,S   0,N  12)    -59.6627         0.037211   
    144. D(C  22,O   8,S   0,C  13)    163.5219         0.037211   
    145. D(C  21,O   8,S   0,O   9)     69.8193         0.037211   
    146. D(C  22,O   8,S   0,N  12)    -84.6385         0.037211   
    147. D(N  15,O  11,S   1,O  10)   -111.8989         0.030578   
    148. D(N  15,O  11,S   1,C  14)    123.3406         0.030578   
    149. D(C  20,O  11,S   1,C  14)    156.7150         0.030578   
    150. D(C  20,O  11,S   1,N  12)     52.4046         0.030578   
    151. D(C  20,O  11,S   1,O  10)    -78.5245         0.030578   
    152. D(N  15,O  11,S   1,N  12)     19.0301         0.030578   
    153. D(S   1,N  12,S   0,O   8)    138.4403         0.013697   
    154. D(S   1,N  12,S   0,O   9)      6.2622         0.013697   
    155. D(S   1,N  12,S   0,C  13)   -111.0458         0.013697   
    156. D(S   0,N  12,S   1,O  11)   -105.0218         0.010071   
    157. D(S   0,N  12,S   1,C  14)    139.9260         0.010071   
    158. D(S   0,N  12,S   1,O  10)     26.3778         0.010071   
    159. D(F   3,C  13,S   0,O   8)    -73.1136         0.003547   
    160. D(F   2,C  13,S   0,O   8)    172.1215         0.003547   
    161. D(F   3,C  13,S   0,O   9)     52.7932         0.003547   
    162. D(F   2,C  13,S   0,O   9)    -61.9717         0.003547   
    163. D(F   2,C  13,S   0,N  12)     59.3359         0.003547   
    164. D(F   3,C  13,S   0,N  12)    174.1008         0.003547   
    165. D(F   6,C  14,S   1,N  12)   -178.4336         0.002714   
    166. D(F   6,C  14,S   1,O  11)     73.9025         0.002714   
    167. D(F   6,C  14,S   1,O  10)    -56.8280         0.002714   
    168. D(F   5,C  14,S   1,O  11)    -44.9133         0.002714   
    169. D(F   5,C  14,S   1,O  10)   -175.6438         0.002714   
    170. D(F   5,C  14,S   1,N  12)     62.7506         0.002714   
    171. D(C  17,N  15,O  11,S   1)   -121.6117         0.001500   
    172. D(C  21,N  15,O  11,C  20)    -97.0054         0.001500   
    173. D(C  21,N  15,O  11,S   1)     11.9176         0.001500   
    174. D(C  20,N  15,O  11,S   1)    108.9229         0.001500   
    175. D(C  17,N  15,O  11,C  20)    129.4654         0.001500   
    176. D(H  26,C  17,N  15,C  20)     69.1365         0.024757   
    177. D(H  25,C  17,N  15,C  21)     -6.1024         0.024757   
    178. D(H  25,C  17,N  15,C  20)    178.3687         0.024757   
    179. D(C  18,C  17,N  15,O  11)   -114.6602         0.024757   
    180. D(H  25,C  17,N  15,O  11)    116.8185         0.024757   
    181. D(C  18,C  17,N  15,C  21)    122.4190         0.024757   
    182. D(C  18,C  17,N  15,C  20)    -53.1100         0.024757   
    183. D(H  27,C  18,C  17,H  26)   -150.4136         0.008782   
    184. D(H  27,C  18,C  17,H  25)     90.3590         0.008782   
    185. D(H  27,C  18,C  17,N  15)    -32.2057         0.008782   
    186. D(C  19,C  18,C  17,H  26)     84.0560         0.008782   
    187. D(C  19,C  18,C  17,H  25)    -35.1713         0.008782   
    188. D(C  19,C  18,C  17,N  15)   -157.7360         0.008782   
    189. D(H  29,C  19,C  18,H  28)     63.5793         0.010009   
    190. D(H  29,C  19,C  18,H  27)    172.7102         0.010009   
    191. D(H  29,C  19,C  18,C  17)    -62.2807         0.010009   
    192. D(C  23,C  19,C  18,H  28)   -167.4839         0.010009   
    193. D(C  23,C  19,C  18,C  17)     66.6562         0.010009   
    194. D(C  23,C  19,C  18,H  27)    -58.3529         0.010009   
    195. D(N  16,C  20,N  15,O  11)   -109.1413         0.036108   
    196. D(N  16,C  20,N  15,C  21)      0.6138         0.036108   
    197. D(N  16,C  20,N  15,C  17)    176.9532         0.036108   
    198. D(H  31,C  20,O  11,N  15)   -138.0665         0.001500   
    199. D(H  31,C  20,O  11,S   1)    128.2879         0.001500   
    200. D(N  16,C  20,O  11,N  15)    108.7122         0.001500   
    201. D(N  16,C  20,O  11,S   1)     15.0666         0.001500   
    202. D(H  31,C  20,N  15,C  17)    -21.7783         0.036108   
    203. D(N  15,C  20,O  11,S   1)    -93.6456         0.001500   
    204. D(O  11,C  20,N  16,C  24)     75.4391         0.035974   
    205. D(H  31,C  20,N  16,C  24)      6.5045         0.035974   
    206. D(H  31,C  20,N  16,C  22)   -169.5199         0.035974   
    207. D(N  15,C  20,N  16,C  24)    170.4792         0.035974   
    208. D(N  15,C  20,N  16,C  22)     -5.5451         0.035974   
    209. D(O  11,C  20,N  15,C  17)    -73.9055         0.036108   
    210. D(O  11,C  20,N  16,C  22)   -100.5852         0.035974   
    211. D(H  31,C  20,N  15,O  11)     52.1272         0.036108   
    212. D(H  31,C  20,N  15,C  21)    161.8823         0.036108   
    213. D(O   8,C  21,N  15,C  17)     98.2166         0.028178   
    214. D(H  32,C  21,N  15,O  11)   -103.5539         0.028178   
    215. D(H  32,C  21,N  15,C  20)   -173.8712         0.028178   
    216. D(H  32,C  21,N  15,C  17)      9.8519         0.028178   
    217. D(C  22,C  21,N  15,O  11)     74.5279         0.028178   
    218. D(C  22,C  21,N  15,C  20)      4.2106         0.028178   
    219. D(C  22,C  21,N  15,C  17)   -172.0663         0.028178   
    220. D(H  32,C  21,O   8,C  22)   -139.5077         0.001500   
    221. D(H  32,C  21,O   8,S   0)    146.1540         0.001500   
    222. D(C  22,C  21,O   8,S   0)    -74.3382         0.001500   
    223. D(N  15,C  21,O   8,C  22)    107.9594         0.001500   
    224. D(N  15,C  21,O   8,S   0)     33.6212         0.001500   
    225. D(H  33,C  22,C  21,O   8)    -55.4697         0.026779   
    226. D(H  33,C  22,C  21,H  32)      7.0873         0.026779   
    227. D(H  33,C  22,C  21,N  15)   -170.4900         0.026779   
    228. D(N  16,C  22,C  21,O   8)    107.6567         0.026779   
    229. D(N  16,C  22,C  21,H  32)    170.2137         0.026779   
    230. D(N  16,C  22,C  21,N  15)     -7.3636         0.026779   
    231. D(O   8,C  22,N  16,C  24)    -90.8040         0.047908   
    232. D(O   8,C  22,N  16,C  20)     85.7499         0.047908   
    233. D(H  33,C  22,N  16,C  24)     -2.6232         0.047908   
    234. D(H  33,C  22,N  16,C  20)    173.9307         0.047908   
    235. D(C  21,C  22,N  16,C  24)   -168.7265         0.047908   
    236. D(C  21,C  22,N  16,C  20)      7.8274         0.047908   
    237. D(H  33,C  22,O   8,C  21)    142.8561         0.001500   
    238. D(H  33,C  22,O   8,S   0)   -102.9568         0.001500   
    239. D(C  21,C  22,O   8,S   0)    114.1871         0.001500   
    240. D(N  16,C  22,O   8,C  21)    -99.4391         0.001500   
    241. D(N  16,C  22,O   8,S   0)     14.7480         0.001500   
    242. D(H  35,C  23,C  19,H  30)    161.7737         0.012120   
    243. D(H  35,C  23,C  19,H  29)     34.0251         0.012120   
    244. D(H  35,C  23,C  19,C  18)    -85.7310         0.012120   
    245. D(H  34,C  23,C  19,H  30)     50.2817         0.012120   
    246. D(H  34,C  23,C  19,H  29)    -77.4669         0.012120   
    247. D(H  34,C  23,C  19,C  18)    162.7770         0.012120   
    248. D(H  39,C  24,N  16,C  22)     64.3289         0.025357   
    249. D(H  39,C  24,N  16,C  20)   -111.4848         0.025357   
    250. D(H  38,C  24,N  16,C  22)    177.6512         0.025357   
    251. D(H  38,C  24,N  16,C  20)      1.8375         0.025357   
    252. D(H  37,C  24,N  16,C  22)    -62.6448         0.025357   
    253. D(H  37,C  24,N  16,C  20)    121.5415         0.025357   
    -----------------------------------------------------------------

Number of atoms                         .... 40
Number of degrees of freedom            .... 253


         *************************************************************
         *                GEOMETRY OPTIMIZATION CYCLE   1            *
         *************************************************************
---------------------------------
CARTESIAN COORDINATES (ANGSTROEM)
---------------------------------
  S     -0.698665    1.044227    3.828845
  S      2.086868    1.224691    4.123532
  F     -0.877109    1.371070    6.438334
  F     -2.774269    1.476856    5.262198
  F     -1.873276   -0.506512    5.750120
  F      3.135863   -1.048063    5.120325
  F      4.172168    0.707829    5.864042
  F      2.210061    0.150485    6.669961
  O     -1.430836    0.224832    2.860902
  O     -0.637353    2.487318    3.604502
  O      1.995329    2.605344    4.618728
  O      2.719374    0.999323    2.793665
  N      0.712353    0.384622    4.021594
  C     -1.597233    0.776150    5.404317
  C      2.917424    0.201857    5.496335
  N      1.402676   -0.000000   -0.000000
  N      0.617890    2.083006    0.014043
  C      2.273868   -1.118182   -0.072762
  C      3.254993   -1.039035   -1.289779
  C      3.787903   -2.434323   -1.687621
  C      1.767550    1.321767    0.000000
  C      0.000000    0.000000   -0.000000
  C     -0.483433    1.322164   -0.097339
  C      2.757301   -3.397852   -2.247686
  C      0.448215    3.484169    0.199927
  H      1.630384   -1.999055   -0.018084
  H      2.808703   -1.127296    0.889771
  H      2.791379   -0.529898   -2.128195
  H      4.070291   -0.334736   -1.106336
  H      4.319743   -2.716109   -0.780239
  H      4.459761   -2.203680   -2.532612
  H      2.699055    1.795162    0.252577
  H     -0.465895   -0.969844    0.104139
  H     -1.464843    1.776776   -0.001617
  H      3.328709   -4.186866   -2.756656
  H      2.168355   -4.003715   -1.548420
  H      2.059920   -2.914668   -2.950532
  H     -0.052828    3.960363   -0.642211
  H      1.431193    3.954174    0.314160
  H     -0.049049    3.636494    1.165549

----------------------------
CARTESIAN COORDINATES (A.U.)
----------------------------
  NO LB      ZA    FRAG     MASS         X           Y           Z
   0 S    16.0000    0    32.060   -1.320286    1.973303    7.235468
   1 S    16.0000    0    32.060    3.943609    2.314331    7.792346
   2 F     9.0000    0    18.998   -1.657496    2.590947   12.166688
   3 F     9.0000    0    18.998   -5.242609    2.790853    9.944113
   4 F     9.0000    0    18.998   -3.539979   -0.957169   10.866152
   5 F     9.0000    0    18.998    5.925922   -1.980552    9.676012
   6 F     9.0000    0    18.998    7.884255    1.337603   11.081433
   7 F     9.0000    0    18.998    4.176410    0.284375   12.604400
   8 O     8.0000    0    15.999   -2.703888    0.424871    5.406321
   9 O     8.0000    0    15.999   -1.204423    4.700350    6.811522
  10 O     8.0000    0    15.999    3.770625    4.923387    8.728131
  11 O     8.0000    0    15.999    5.138872    1.888447    5.279262
  12 N     7.0000    0    14.007    1.346152    0.726830    7.599711
  13 C     6.0000    0    12.011   -3.018333    1.466711   10.212679
  14 C     6.0000    0    12.011    5.513132    0.381454   10.386568
  15 N     7.0000    0    14.007    2.650673   -0.000000   -0.000000
  16 N     7.0000    0    14.007    1.167643    3.936311    0.026537
  17 C     6.0000    0    12.011    4.296988   -2.113058   -0.137500
  18 C     6.0000    0    12.011    6.151045   -1.963492   -2.437329
  19 C     6.0000    0    12.011    7.158099   -4.600204   -3.189142
  20 C     6.0000    0    12.011    3.340185    2.497778    0.000000
  21 C     6.0000    0    12.011    0.000000    0.000000   -0.000000
  22 C     6.0000    0    12.011   -0.913556    2.498528   -0.183944
  23 C     6.0000    0    12.011    5.210544   -6.421010   -4.247511
  24 C     6.0000    0    12.011    0.847004    6.584125    0.377807
  25 H     1.0000    0     1.008    3.080979   -3.777666   -0.034174
  26 H     1.0000    0     1.008    5.307679   -2.130281    1.681424
  27 H     1.0000    0     1.008    5.274942   -1.001362   -4.021706
  28 H     1.0000    0     1.008    7.691735   -0.632559   -2.090672
  29 H     1.0000    0     1.008    8.163131   -5.132702   -1.474438
  30 H     1.0000    0     1.008    8.427727   -4.164352   -4.785943
  31 H     1.0000    0     1.008    5.100475    3.392365    0.477301
  32 H     1.0000    0     1.008   -0.880414   -1.832740    0.196794
  33 H     1.0000    0     1.008   -2.768152    3.357620   -0.003056
  34 H     1.0000    0     1.008    6.290348   -7.912030   -5.209325
  35 H     1.0000    0     1.008    4.097597   -7.565925   -2.926090
  36 H     1.0000    0     1.008    3.892685   -5.507924   -5.575697
  37 H     1.0000    0     1.008   -0.099830    7.484001   -1.213603
  38 H     1.0000    0     1.008    2.704563    7.472306    0.593676
  39 H     1.0000    0     1.008   -0.092689    6.871978    2.202568

--------------------------------
INTERNAL COORDINATES (ANGSTROEM)
--------------------------------
 S      0   0   0     0.000000000000     0.00000000     0.00000000
 S      1   0   0     2.806884710378     0.00000000     0.00000000
 F      1   2   0     2.635925159959    87.43662472     0.00000000
 F      3   1   2     2.234659399974    62.76155852   169.82668934
 F      4   3   1     2.232398908698    60.01753779    78.78068848
 F      2   1   3     2.694326917690   111.77610483    76.36425397
 F      6   2   1     2.170299459701    68.29781570   215.88643529
 F      6   2   1     2.166794495102    68.38554296   281.81126317
 O      1   2   3     1.464375699920   126.98145542   213.82023419
 O      1   2   3     1.461711523275    84.89465636    92.09320418
 O      2   1   3     1.469626201912    91.94632870   296.96690869
 O      2   1   3     1.489765355064   108.53554685   176.52192104
 N      1   2   3     1.569459374864    28.58826270   266.32192952
 C      5   4   3     1.356835015358    35.56349008   322.62758440
 C      6   2   1     1.323404368748    40.90089993   250.08075475
 N     12   2   1     3.246059798241   129.98705985   350.73869216
 N     16  12   2     2.225982989082    81.34379851    74.67756919
 C     16  12   2     1.419366335599    92.15936647   238.38831996
 C     18  16  12     1.565247869036   112.62867781   245.33983665
 C     19  18  16     1.545671351875   111.75223227   202.26395233
 C     16  12   2     1.371204229196    66.12799608   108.92291986
 C     16  12   2     1.402676000000   113.93058834    11.91755957
 C     17  16  12     1.343204693715    76.02438625   235.60102120
 C     20  19  18     1.517959624124   115.71408917    66.65621659
 C     17  16  12     1.423587095913   164.55217976    32.54741534
 H     18  16  12     1.092244745498   105.73413589   116.81846066
 H     18  16  12     1.101181782591   105.05959835     7.58630350
 H     19  18  16     1.084942309444   110.89949934   327.79433958
 H     19  18  16     1.092885741720   111.69627412    76.46996542
 H     20  19  18     1.088852253210   100.80820035   297.71934450
 H     20  19  18     1.103901787160   102.60647624   180.69105166
 H     21  16  12     1.074988154344   130.92537585    52.12717921
 H     22  16  12     1.080972000878   115.53080842   256.44611218
 H     23  17  16     1.085817829992   119.77625339   170.58777531
 H     24  20  19     1.099136322555   105.87551217   162.77702739
 H     24  20  19     1.096768117900   118.68435137   274.26902737
 H     24  20  19     1.101725708483   112.75275296    41.96967730
 H     25  17  16     1.089495857968   112.58642949   142.86559893
 H     25  17  16     1.095536227971   109.20402131    23.16160590
 H     25  17  16     1.096768087704   107.80012713   269.83931683

---------------------------
INTERNAL COORDINATES (A.U.)
---------------------------
 S      0   0   0     0.000000000000     0.00000000     0.00000000
 S      1   0   0     5.304243392105     0.00000000     0.00000000
 F      1   2   0     4.981176661835    87.43662472     0.00000000
 F      3   1   2     4.222894268544    62.76155852   169.82668934
 F      4   3   1     4.218622559104    60.01753779    78.78068848
 F      2   1   3     5.091539989687   111.77610483    76.36425397
 F      6   2   1     4.101271607432    68.29781570   215.88643529
 F      6   2   1     4.094648184231    68.38554296   281.81126317
 O      1   2   3     2.767269030017   126.98145542   213.82023419
 O      1   2   3     2.762234465786    84.89465636    92.09320418
 O      2   1   3     2.777191040848    91.94632870   296.96690869
 O      2   1   3     2.815248524875   108.53554685   176.52192104
 N      1   2   3     2.965848396809    28.58826270   266.32192952
 C      5   4   3     2.564046587942    35.56349008   322.62758440
 C      6   2   1     2.500871821368    40.90089993   250.08075475
 N     12   2   1     6.134164033008   129.98705985   350.73869216
 N     16  12   2     4.206498228132    81.34379851    74.67756919
 C     16  12   2     2.682213657990    92.15936647   238.38831996
 C     18  16  12     2.957889804183   112.62867781   245.33983665
 C     19  18  16     2.920895548092   111.75223227   202.26395233
 C     16  12   2     2.591200466855    66.12799608   108.92291986
 C     16  12   2     2.650673494624   113.93058834    11.91755957
 C     17  16  12     2.538289012918    76.02438625   235.60102120
 C     20  19  18     2.868527971944   115.71408917    66.65621659
 C     17  16  12     2.690189739060   164.55217976    32.54741534
 H     18  16  12     2.064043440207   105.73413589   116.81846066
 H     18  16  12     2.080931992760   105.05959835     7.58630350
 H     19  18  16     2.050243835953   110.89949934   327.79433958
 H     19  18  16     2.065254747517   111.69627412    76.46996542
 H     20  19  18     2.057632558870   100.80820035   297.71934450
 H     20  19  18     2.086072056478   102.60647624   180.69105166
 H     21  16  12     2.031433208919   130.92537585    52.12717921
 H     22  16  12     2.042741040096   115.53080842   256.44611218
 H     23  17  16     2.051898330013   119.77625339   170.58777531
 H     24  20  19     2.077066633475   105.87551217   162.77702739
 H     24  20  19     2.072591375246   118.68435137   274.26902737
 H     24  20  19     2.081959863734   112.75275296    41.96967730
 H     25  17  16     2.058848795601   112.58642949   142.86559893
 H     25  17  16     2.070263440655   109.20402131    23.16160590
 H     25  17  16     2.072591318184   107.80012713   269.83931683

---------------------
BASIS SET INFORMATION
---------------------
There are 6 groups of distinct atoms

 Group   1 Type S   : 14s9p3d1f contracted to 5s5p2d1f pattern {73211/51111/21/1}
 Group   2 Type F   : 11s6p2d1f contracted to 5s3p2d1f pattern {62111/411/11/1}
 Group   3 Type O   : 11s6p2d1f contracted to 5s3p2d1f pattern {62111/411/11/1}
 Group   4 Type N   : 11s6p2d1f contracted to 5s3p2d1f pattern {62111/411/11/1}
 Group   5 Type C   : 11s6p2d1f contracted to 5s3p2d1f pattern {62111/411/11/1}
 Group   6 Type H   : 5s1p contracted to 3s1p pattern {311/1}

Atom   0S    basis set group =>   1
Atom   1S    basis set group =>   1
Atom   2F    basis set group =>   2
Atom   3F    basis set group =>   2
Atom   4F    basis set group =>   2
Atom   5F    basis set group =>   2
Atom   6F    basis set group =>   2
Atom   7F    basis set group =>   2
Atom   8O    basis set group =>   3
Atom   9O    basis set group =>   3
Atom  10O    basis set group =>   3
Atom  11O    basis set group =>   3
Atom  12N    basis set group =>   4
Atom  13C    basis set group =>   5
Atom  14C    basis set group =>   5
Atom  15N    basis set group =>   4
Atom  16N    basis set group =>   4
Atom  17C    basis set group =>   5
Atom  18C    basis set group =>   5
Atom  19C    basis set group =>   5
Atom  20C    basis set group =>   5
Atom  21C    basis set group =>   5
Atom  22C    basis set group =>   5
Atom  23C    basis set group =>   5
Atom  24C    basis set group =>   5
Atom  25H    basis set group =>   6
Atom  26H    basis set group =>   6
Atom  27H    basis set group =>   6
Atom  28H    basis set group =>   6
Atom  29H    basis set group =>   6
Atom  30H    basis set group =>   6
Atom  31H    basis set group =>   6
Atom  32H    basis set group =>   6
Atom  33H    basis set group =>   6
Atom  34H    basis set group =>   6
Atom  35H    basis set group =>   6
Atom  36H    basis set group =>   6
Atom  37H    basis set group =>   6
Atom  38H    basis set group =>   6
Atom  39H    basis set group =>   6
---------------------------------
AUXILIARY/J BASIS SET INFORMATION
---------------------------------
There are 6 groups of distinct atoms

 Group   1 Type S   : 14s5p5d2f1g contracted to 8s4p3d1f1g pattern {71111111/2111/311/2/1}
 Group   2 Type F   : 12s5p4d2f1g contracted to 6s4p3d1f1g pattern {711111/2111/211/2/1}
 Group   3 Type O   : 12s5p4d2f1g contracted to 6s4p3d1f1g pattern {711111/2111/211/2/1}
 Group   4 Type N   : 12s5p4d2f1g contracted to 6s4p3d1f1g pattern {711111/2111/211/2/1}
 Group   5 Type C   : 12s5p4d2f1g contracted to 6s4p3d1f1g pattern {711111/2111/211/2/1}
 Group   6 Type H   : 5s2p1d contracted to 3s1p1d pattern {311/2/1}

Atom   0S    basis set group =>   1
Atom   1S    basis set group =>   1
Atom   2F    basis set group =>   2
Atom   3F    basis set group =>   2
Atom   4F    basis set group =>   2
Atom   5F    basis set group =>   2
Atom   6F    basis set group =>   2
Atom   7F    basis set group =>   2
Atom   8O    basis set group =>   3
Atom   9O    basis set group =>   3
Atom  10O    basis set group =>   3
Atom  11O    basis set group =>   3
Atom  12N    basis set group =>   4
Atom  13C    basis set group =>   5
Atom  14C    basis set group =>   5
Atom  15N    basis set group =>   4
Atom  16N    basis set group =>   4
Atom  17C    basis set group =>   5
Atom  18C    basis set group =>   5
Atom  19C    basis set group =>   5
Atom  20C    basis set group =>   5
Atom  21C    basis set group =>   5
Atom  22C    basis set group =>   5
Atom  23C    basis set group =>   5
Atom  24C    basis set group =>   5
Atom  25H    basis set group =>   6
Atom  26H    basis set group =>   6
Atom  27H    basis set group =>   6
Atom  28H    basis set group =>   6
Atom  29H    basis set group =>   6
Atom  30H    basis set group =>   6
Atom  31H    basis set group =>   6
Atom  32H    basis set group =>   6
Atom  33H    basis set group =>   6
Atom  34H    basis set group =>   6
Atom  35H    basis set group =>   6
Atom  36H    basis set group =>   6
Atom  37H    basis set group =>   6
Atom  38H    basis set group =>   6
Atom  39H    basis set group =>   6
--------------------------------------------------------------------------
WARNING: There was an error initializing an OpenFabrics device.

  Local host:   ga00
  Local device: mlx5_0
--------------------------------------------------------------------------


           ************************************************************
           *        Program running with 15 parallel MPI-processes    *
           *              working on a common directory               *
           ************************************************************
------------------------------------------------------------------------------
                             ORCA STARTUP CALCULATIONS
                           -- RI-GTO INTEGRALS CHOSEN --
------------------------------------------------------------------------------
------------------------------------------------------------------------------
                   ___                                                        
                  /   \      - P O W E R E D   B Y -                         
                 /     \                                                     
                 |  |  |   _    _      __       _____    __    __             
                 |  |  |  | |  | |    /  \     |  _  \  |  |  /  |          
                  \  \/   | |  | |   /    \    | | | |  |  | /  /          
                 / \  \   | |__| |  /  /\  \   | |_| |  |  |/  /          
                |  |  |   |  __  | /  /__\  \  |    /   |      \           
                |  |  |   | |  | | |   __   |  |    \   |  |\   \          
                \     /   | |  | | |  |  |  |  | |\  \  |  | \   \       
                 \___/    |_|  |_| |__|  |__|  |_| \__\ |__|  \__/        
                                                                              
                      - O R C A' S   B I G   F R I E N D -                    
                                      &                                       
                       - I N T E G R A L  F E E D E R -                       
                                                                              
 v1 FN, 2020, v2 2021, v3 2022-2024                                           
------------------------------------------------------------------------------


----------------------
SHARK INTEGRAL PACKAGE
----------------------

Number of atoms                             ...     40
Number of basis functions                   ...    877
Number of shells                            ...    339
Maximum angular momentum                    ...      3
Integral batch strategy                     ... SHARK/LIBINT Hybrid
RI-J (if used) integral strategy            ... SPLIT-RIJ (Revised 2003 algorithm where possible)
Printlevel                                  ...      1
Contraction scheme used                     ... SEGMENTED contraction
Prescreening option                         ... SCHWARTZ
   Thresh                                   ... 2.500e-11
   Tcut                                     ... 2.500e-12
   Tpresel                                  ... 2.500e-12 
Coulomb Range Separation                    ... NOT USED
Exchange Range Separation                   ... NOT USED
Multipole approximations                    ... NOT USED
Finite Nucleus Model                        ... NOT USED
CABS basis                                  ... NOT available
Auxiliary Coulomb fitting basis             ... AVAILABLE
   # of basis functions in Aux-J            ...   1394
   # of shells in Aux-J                     ...    454
   Maximum angular momentum in Aux-J        ...      4
Auxiliary J/K fitting basis                 ... NOT available
Auxiliary Correlation fitting basis         ... NOT available
Auxiliary 'external' fitting basis          ... NOT available

Checking pre-screening integrals            ... done (  0.0 sec) Dimension = 339
Check shell pair data                       ... done (  0.0 sec)
Shell pair information
Shell pair cut-off parameter TPreSel        ...   2.5e-12
Total number of shell pairs                 ...     57630
Shell pairs after pre-screening             ...     34594
Total number of primitive shell pairs       ...    183333
Primitive shell pairs kept                  ...     70133
          la=0 lb=0:   8440 shell pairs
          la=1 lb=0:  10238 shell pairs
          la=1 lb=1:   3115 shell pairs
          la=2 lb=0:   4737 shell pairs
          la=2 lb=1:   2953 shell pairs
          la=2 lb=2:    708 shell pairs
          la=3 lb=0:   2174 shell pairs
          la=3 lb=1:   1420 shell pairs
          la=3 lb=2:    644 shell pairs
          la=3 lb=3:    165 shell pairs

Calculating one electron integrals          ... done (  0.1 sec)
Calculating RI/J V-Matrix + Cholesky decomp.... done (  0.1 sec)
Calculating Nuclear repulsion               ... done (  0.2 sec) ENN=   3054.827323231588 Eh

Diagonalization of the overlap matrix:
Smallest eigenvalue                        ... 1.019e-04
Time for diagonalization                   ...    0.123 sec
Threshold for overlap eigenvalues          ... 1.000e-07
Number of eigenvalues below threshold      ... 0
Time for construction of square roots      ...    0.057 sec
Total time needed                          ...    0.186 sec

-------------------
DFT GRID GENERATION
-------------------

General Integration Accuracy     IntAcc      ... 4.388
Radial Grid Type                 RadialGrid  ... OptM3 with GC (2021)
Angular Grid (max. ang.)         AngularGrid ... 4 (Lebedev-302)
Angular grid pruning method      GridPruning ... 4 (adaptive)
Weight generation scheme         WeightScheme... mBecke (2022)
Basis function cutoff            BFCut       ... 1.0000e-11
Integration weight cutoff        WCut        ... 1.0000e-14
Partially contracted basis set               ... off
Rotationally invariant grid construction     ... off
Angular grids for H and He will be reduced by one unit

Total number of grid points                  ...   200992
Total number of batches                      ...     3162
Average number of points per batch           ...       63
Average number of grid points per atom       ...     5025

--------------------
COSX GRID GENERATION
--------------------

GRIDX 1
-------
General Integration Accuracy     IntAcc      ... 3.816
Radial Grid Type                 RadialGrid  ... OptM3 with GC (2021)
Angular Grid (max. ang.)         AngularGrid ... 1 (Lebedev-50)
Angular grid pruning method      GridPruning ... 4 (adaptive)
Weight generation scheme         WeightScheme... mBecke (2022)
Basis function cutoff            BFCut       ... 1.0000e-11
Integration weight cutoff        WCut        ... 1.0000e-14
Partially contracted basis set               ... on
Rotationally invariant grid construction     ... off
Angular grids for H and He will be reduced by one unit

Total number of grid points                  ...    27490
Total number of batches                      ...      235
Average number of points per batch           ...      116
Average number of grid points per atom       ...      687
UseSFitting                                  ... on

GRIDX 2
-------
General Integration Accuracy     IntAcc      ... 4.020
Radial Grid Type                 RadialGrid  ... OptM3 with GC (2021)
Angular Grid (max. ang.)         AngularGrid ... 2 (Lebedev-110)
Angular grid pruning method      GridPruning ... 4 (adaptive)
Weight generation scheme         WeightScheme... mBecke (2022)
Basis function cutoff            BFCut       ... 1.0000e-11
Integration weight cutoff        WCut        ... 1.0000e-14
Partially contracted basis set               ... on
Rotationally invariant grid construction     ... off
Angular grids for H and He will be reduced by one unit

Total number of grid points                  ...    55903
Total number of batches                      ...      459
Average number of points per batch           ...      121
Average number of grid points per atom       ...     1398
UseSFitting                                  ... on

GRIDX 3
-------
General Integration Accuracy     IntAcc      ... 4.338
Radial Grid Type                 RadialGrid  ... OptM3 with GC (2021)
Angular Grid (max. ang.)         AngularGrid ... 3 (Lebedev-194)
Angular grid pruning method      GridPruning ... 4 (adaptive)
Weight generation scheme         WeightScheme... mBecke (2022)
Basis function cutoff            BFCut       ... 1.0000e-11
Integration weight cutoff        WCut        ... 1.0000e-14
Partially contracted basis set               ... on
Rotationally invariant grid construction     ... off
Angular grids for H and He will be reduced by one unit

Total number of grid points                  ...   123525
Total number of batches                      ...      986
Average number of points per batch           ...      125
Average number of grid points per atom       ...     3088
UseSFitting                                  ... on
Initializing property integral containers    ... done (  0.0 sec)

SHARK setup successfully completed in   3.2 seconds

Maximum memory used throughout the entire STARTUP-calculation: 83.1 MB
[ga00:1811448] 14 more processes have sent help message help-mpi-btl-openib.txt / error in device init
[ga00:1811448] Set MCA parameter "orte_base_help_aggregate" to 0 to see all help / error messages
--------------------------------------------------------------------------
WARNING: There was an error initializing an OpenFabrics device.

  Local host:   ga00
  Local device: mlx5_0
--------------------------------------------------------------------------


           ************************************************************
           *        Program running with 15 parallel MPI-processes    *
           *              working on a common directory               *
           ************************************************************
-------------------------------------------------------------------------------
                                 ORCA GUESS
                   Start orbitals & Density for SCF / CASSCF
-------------------------------------------------------------------------------

------------
SCF SETTINGS
------------
Hamiltonian:
 Density Functional     Method          .... DFT(GTOs)
 Exchange Functional    Exchange        .... B88
   X-Alpha parameter    XAlpha          ....  0.666667
   Becke's b parameter  XBeta           ....  0.004200
 Correlation Functional Correlation     .... LYP
 LDA part of GGA corr.  LDAOpt          .... VWN-5
 Gradients option       PostSCFGGA      .... off
 Hybrid DFT is turned on
   Fraction HF Exchange ScalHFX         ....  0.200000
   Scaling of DF-GGA-X  ScalDFX         ....  0.720000
   Scaling of DF-GGA-C  ScalDFC         ....  0.810000
   Scaling of DF-LDA-C  ScalLDAC        ....  1.000000
   Perturbative correction              ....  0.000000
   NL short-range parameter             ....  4.800000
 RI-approximation to the Coulomb term is turned on
   Number of AuxJ basis functions       .... 1394
   RIJ-COSX (HFX calculated with COS-X)).... on


General Settings:
 Integral files         IntName         .... cluster_2_IONIC_LIQUID0001_final_coord
 Hartree-Fock type      HFTyp           .... RHF
 Total Charge           Charge          ....    0
 Multiplicity           Mult            ....    1
 Number of Electrons    NEL             ....  214
 Basis Dimension        Dim             ....  877
 Nuclear Repulsion      ENuc            ....   3054.8273232316 Eh

Convergence Acceleration:
 AO-DIIS                CNVDIIS         .... on
   Start iteration      DIISMaxIt       ....    12
   Startup error        DIISStart       ....  0.200000
   # of expansion vecs  DIISMaxEq       ....     5
   Bias factor          DIISBfac        ....   1.050
   Max. coefficient     DIISMaxC        ....  10.000
 MO-DIIS                CNVKDIIS        .... off
 Trust-Rad. Augm. Hess. CNVTRAH         .... auto
   Auto Start mean grad. ratio tolernc. ....  1.125000
   Auto Start start iteration           ....    50
   Auto Start num. interpolation iter.  ....    10
   Max. Number of Micro iterations      ....    24
   Max. Number of Macro iterations      .... Maxiter - #DIIS iter
   Number of Davidson start vectors     ....     2
   Converg. threshold    (grad. norm)   ....   1.000e-05
   Grad. Scal. Fac. for Micro threshold ....   0.100
   Minimum threshold for Micro iter.    ....   1.000e-02
   NR start threshold (gradient norm)   ....   1.000e-04
   Initial trust radius                 ....   0.400
   Minimum AH scaling param. (alpha)    ....   1.000
   Maximum AH scaling param. (alpha)    .... 1000.000
   Quad. conv. algorithm                .... NR
   White noise on init. David. guess    .... on
   Maximum white noise                  ....   0.010
   Pseudo random numbers                .... off
   Inactive MOs                         .... canonical
   Orbital update algorithm             .... Taylor
   Preconditioner                       .... Diag
   Full preconditioner red. dimension   ....   250
 SOSCF                  CNVSOSCF        .... on
   Start iteration      SOSCFMaxIt      ....   150
   Startup grad/error   SOSCFStart      ....  0.003300
   Hessian update       SOSCFHessUp     .... L-BFGS
 Level Shifting         CNVShift        .... on
   Level shift para.    LevelShift      ....    0.2500
   Turn off err/grad.   ShiftErr        ....    0.0010
 Zerner damping         CNVZerner       .... off
 Static damping         CNVDamp         .... on
   Fraction old density DampFac         ....    0.7000
   Max. Damping (<1)    DampMax         ....    0.9800
   Min. Damping (>=0)   DampMin         ....    0.0000
   Turn off err/grad.   DampErr         ....    0.1000

SCF Procedure:
 Maximum # iterations   MaxIter         ....   125
 SCF integral mode      SCFMode         .... Direct
   Integral package                     .... SHARK and LIBINT hybrid scheme
 Reset frequency        DirectResetFreq ....    20
 Integral Threshold     Thresh          ....  2.500e-11 Eh
 Primitive CutOff       TCut            ....  2.500e-12 Eh

Convergence Tolerance:
 Convergence Check Mode ConvCheckMode   .... Total+1el-Energy
 Convergence forced     ConvForced      .... 0
 Energy Change          TolE            ....  1.000e-08 Eh
 1-El. energy change                    ....  1.000e-05 Eh
 Orbital Gradient       TolG            ....  1.000e-05
 Orbital Rotation angle TolX            ....  1.000e-05
 DIIS Error             TolErr          ....  5.000e-07

------------------------------
INITIAL GUESS: MODEL POTENTIAL
------------------------------
Loading Hartree-Fock densities                     ... done
Calculating cut-offs                               ... done
Initializing the effective Hamiltonian             ... done
Setting up the integral package (SHARK)            ... done
Starting the Coulomb interaction                   ... done (   0.2 sec)
Making the grid                                    ... done (   0.2 sec)
Mapping shells                                     ... done
Starting the XC term evaluation                    ... done (   0.1 sec)
  promolecular density results
     # of electrons  =    213.995978941
     EX              =   -218.957176453
     EC              =     -7.840899136
     EX+EC           =   -226.798075588
Transforming the Hamiltonian                       ... done (   0.1 sec)
Diagonalizing the Hamiltonian                      ... done (   0.1 sec)
Back transforming the eigenvectors                 ... done (   0.0 sec)
Now organizing SCF variables                       ... done
                      ------------------
                      INITIAL GUESS DONE (   0.8 sec)
                      ------------------
             **** ENERGY FILE WAS UPDATED (cluster_2_IONIC_LIQUID0001_final_coord.en.tmp) ****
Finished Guess after   1.4 sec
Maximum memory used throughout the entire GUESS-calculation: 68.1 MB
[ga00:1811583] 14 more processes have sent help message help-mpi-btl-openib.txt / error in device init
[ga00:1811583] Set MCA parameter "orte_base_help_aggregate" to 0 to see all help / error messages
--------------------------------------------------------------------------
WARNING: There was an error initializing an OpenFabrics device.

  Local host:   ga00
  Local device: mlx5_0
--------------------------------------------------------------------------


           ************************************************************
           *        Program running with 15 parallel MPI-processes    *
           *              working on a common directory               *
           ************************************************************

-------------------------------------------------------------------------------------------
                                      ORCA LEAN-SCF
                              memory conserving SCF solver
-------------------------------------------------------------------------------------------

----------------------------------------D-I-I-S--------------------------------------------
Iteration    Energy (Eh)           Delta-E    RMSDP     MaxDP     DIISErr   Damp  Time(sec)
-------------------------------------------------------------------------------------------
               ***  Starting incremental Fock matrix formation  ***
[ga00:1811666] 14 more processes have sent help message help-mpi-btl-openib.txt / error in device init
[ga00:1811666] Set MCA parameter "orte_base_help_aggregate" to 0 to see all help / error messages
    1    -2249.3856829313326671     0.00e+00  1.06e-03  1.43e-01  3.26e-01  0.700   5.8
    2    -2249.9085936402661901    -5.23e-01  6.11e-04  4.47e-02  1.28e-01  0.700   3.3
                               ***Turning on AO-DIIS***
    3    -2250.0569545444323012    -1.48e-01  2.56e-04  1.50e-02  3.86e-02  0.700   3.0
    4    -2250.1667990402238502    -1.10e-01  4.43e-04  3.59e-02  1.39e-02  0.000   2.9
    5    -2250.4261453410681497    -2.59e-01  1.20e-04  8.01e-03  9.22e-03  0.000   3.0
    6    -2250.4274954997354143    -1.35e-03  4.68e-05  3.63e-03  6.03e-03  0.000   2.7
    7    -2250.4276249868989908    -1.29e-04  1.81e-05  1.47e-03  4.05e-03  0.000   2.6
                              *** Initializing SOSCF ***
---------------------------------------S-O-S-C-F--------------------------------------
Iteration    Energy (Eh)           Delta-E    RMSDP     MaxDP     MaxGrad    Time(sec)
--------------------------------------------------------------------------------------
    8    -2250.4276721916066890    -4.72e-05  7.61e-06  5.08e-04  6.69e-04     2.7
               *** Restarting incremental Fock matrix formation ***
    9    -2250.4276827197127204    -1.05e-05  8.40e-06  5.38e-04  8.93e-05     6.6
   10    -2250.4276787903327204     3.93e-06  4.61e-06  3.42e-04  2.37e-04     4.2
   11    -2250.4276845634713027    -5.77e-06  1.27e-06  1.11e-04  1.80e-05     3.1
   12    -2250.4276844227206311     1.41e-07  7.33e-07  7.28e-05  3.54e-05     2.8
   13    -2250.4276845921040149    -1.69e-07  3.06e-07  1.84e-05  4.50e-06     2.5
   14    -2250.4276845884869545     3.62e-09  1.92e-07  1.28e-05  7.66e-06     2.2
                 **** Energy Check signals convergence ****

               *****************************************************
               *                     SUCCESS                       *
               *           SCF CONVERGED AFTER  14 CYCLES          *
               *****************************************************

Recomputing exchange energy using gridx3       ... done (    8.832 sec)
Old exchange energy                            :    -44.064142934 Eh
New exchange energy                            :    -44.064136262 Eh
Exchange energy change after final integration :      0.000006672 Eh
Total energy after final integration           :  -2250.427677916 Eh
             **** ENERGY FILE WAS UPDATED (cluster_2_IONIC_LIQUID0001_final_coord.en.tmp) ****

----------------
TOTAL SCF ENERGY
----------------

Total Energy       :      -2250.42767791603001 Eh          -61237.25036 eV

Components:
Nuclear Repulsion  :       3054.82732323158780 Eh           83126.07751 eV
Electronic Energy  :      -5305.25500782007475 Eh         -144363.32805 eV
One Electron Energy:      -9186.86396451187102 Eh         -249987.27758 eV
Two Electron Energy:       3881.60895669179581 Eh          105623.94953 eV

Virial components:
Potential Energy   :      -4492.97639278352835 Eh         -122260.10323 eV
Kinetic Energy     :       2242.54871486749789 Eh           61022.85287 eV
Virial Ratio       :          2.00351339660820

DFT components:
N(Alpha)           :      106.999988202196 electrons
N(Beta)            :      106.999988202196 electrons
N(Total)           :      213.999976404392 electrons
E(X)               :     -175.388974656545 Eh       
E(C)               :       -9.192443417553 Eh       
E(XC)              :     -184.581418074098 Eh       

---------------
SCF CONVERGENCE
---------------

  Last Energy change         ...   -3.6171e-09  Tolerance :   1.0000e-08
  Last MAX-Density change    ...    1.2823e-05  Tolerance :   1.0000e-07
  Last RMS-Density change    ...    1.9161e-07  Tolerance :   5.0000e-09
  Last DIIS Error            ...    6.6882e-04  Tolerance :   5.0000e-07
  Last Orbital Gradient      ...    7.6575e-06  Tolerance :   1.0000e-05
  Last Orbital Rotation      ...    7.2628e-06  Tolerance :   1.0000e-05


----------------
ORBITAL ENERGIES
----------------

  NO   OCC          E(Eh)            E(eV) 
   0   2.0000     -89.056623     -2423.3539 
   1   2.0000     -89.042147     -2422.9600 
   2   2.0000     -24.722146      -672.7238 
   3   2.0000     -24.716356      -672.5662 
   4   2.0000     -24.707962      -672.3378 
   5   2.0000     -24.702595      -672.1918 
   6   2.0000     -24.698860      -672.0902 
   7   2.0000     -24.697515      -672.0535 
   8   2.0000     -19.114993      -520.1454 
   9   2.0000     -19.110217      -520.0154 
  10   2.0000     -19.102629      -519.8090 
  11   2.0000     -19.097778      -519.6770 
  12   2.0000     -14.453702      -393.3052 
  13   2.0000     -14.451262      -393.2388 
  14   2.0000     -14.295508      -389.0005 
  15   2.0000     -10.434282      -283.9312 
  16   2.0000     -10.424753      -283.6720 
  17   2.0000     -10.312731      -280.6237 
  18   2.0000     -10.272832      -279.5380 
  19   2.0000     -10.267349      -279.3888 
  20   2.0000     -10.261432      -279.2278 
  21   2.0000     -10.254404      -279.0365 
  22   2.0000     -10.215188      -277.9694 
  23   2.0000     -10.204986      -277.6918 
  24   2.0000     -10.191097      -277.3138 
  25   2.0000      -8.099765      -220.4058 
  26   2.0000      -8.086138      -220.0350 
  27   2.0000      -6.063485      -164.9958 
  28   2.0000      -6.062566      -164.9708 
  29   2.0000      -6.061124      -164.9316 
  30   2.0000      -6.049821      -164.6240 
  31   2.0000      -6.049046      -164.6029 
  32   2.0000      -6.047454      -164.5596 
  33   2.0000      -1.305883       -35.5349 
  34   2.0000      -1.287937       -35.0465 
  35   2.0000      -1.223573       -33.2951 
  36   2.0000      -1.215924       -33.0870 
  37   2.0000      -1.201431       -32.6926 
  38   2.0000      -1.201162       -32.6853 
  39   2.0000      -1.105568       -30.0840 
  40   2.0000      -1.101366       -29.9697 
  41   2.0000      -1.081058       -29.4171 
  42   2.0000      -1.009273       -27.4637 
  43   2.0000      -0.984006       -26.7762 
  44   2.0000      -0.979661       -26.6579 
  45   2.0000      -0.889841       -24.2138 
  46   2.0000      -0.853654       -23.2291 
  47   2.0000      -0.821241       -22.3471 
  48   2.0000      -0.804900       -21.9024 
  49   2.0000      -0.757729       -20.6188 
  50   2.0000      -0.748473       -20.3670 
  51   2.0000      -0.721905       -19.6440 
  52   2.0000      -0.709800       -19.3146 
  53   2.0000      -0.682748       -18.5785 
  54   2.0000      -0.668110       -18.1802 
  55   2.0000      -0.644585       -17.5401 
  56   2.0000      -0.620973       -16.8975 
  57   2.0000      -0.618963       -16.8428 
  58   2.0000      -0.596506       -16.2318 
  59   2.0000      -0.588098       -16.0030 
  60   2.0000      -0.585711       -15.9380 
  61   2.0000      -0.578465       -15.7408 
  62   2.0000      -0.573353       -15.6017 
  63   2.0000      -0.565829       -15.3970 
  64   2.0000      -0.549011       -14.9394 
  65   2.0000      -0.530411       -14.4332 
  66   2.0000      -0.521692       -14.1960 
  67   2.0000      -0.517941       -14.0939 
  68   2.0000      -0.512324       -13.9410 
  69   2.0000      -0.502251       -13.6669 
  70   2.0000      -0.490542       -13.3483 
  71   2.0000      -0.488032       -13.2800 
  72   2.0000      -0.483608       -13.1596 
  73   2.0000      -0.467765       -12.7285 
  74   2.0000      -0.464023       -12.6267 
  75   2.0000      -0.461464       -12.5571 
  76   2.0000      -0.459462       -12.5026 
  77   2.0000      -0.455234       -12.3876 
  78   2.0000      -0.451649       -12.2900 
  79   2.0000      -0.448288       -12.1985 
  80   2.0000      -0.442944       -12.0531 
  81   2.0000      -0.439303       -11.9540 
  82   2.0000      -0.436394       -11.8749 
  83   2.0000      -0.435942       -11.8626 
  84   2.0000      -0.431340       -11.7374 
  85   2.0000      -0.427683       -11.6379 
  86   2.0000      -0.425092       -11.5673 
  87   2.0000      -0.419872       -11.4253 
  88   2.0000      -0.416711       -11.3393 
  89   2.0000      -0.412427       -11.2227 
  90   2.0000      -0.403947       -10.9920 
  91   2.0000      -0.402460       -10.9515 
  92   2.0000      -0.378939       -10.3115 
  93   2.0000      -0.378213       -10.2917 
  94   2.0000      -0.371193       -10.1007 
  95   2.0000      -0.367513       -10.0005 
  96   2.0000      -0.344358        -9.3705 
  97   2.0000      -0.338021        -9.1980 
  98   2.0000      -0.332300        -9.0423 
  99   2.0000      -0.323010        -8.7896 
 100   2.0000      -0.311308        -8.4711 
 101   2.0000      -0.310848        -8.4586 
 102   2.0000      -0.298166        -8.1135 
 103   2.0000      -0.295415        -8.0387 
 104   2.0000      -0.286851        -7.8056 
 105   2.0000      -0.271604        -7.3907 
 106   2.0000      -0.251936        -6.8555 
 107   0.0000      -0.077669        -2.1135 
 108   0.0000      -0.042028        -1.1436 
 109   0.0000       0.001568         0.0427 
 110   0.0000       0.012125         0.3300 
 111   0.0000       0.016229         0.4416 
 112   0.0000       0.022686         0.6173 
 113   0.0000       0.034508         0.9390 
 114   0.0000       0.036700         0.9986 
 115   0.0000       0.042740         1.1630 
 116   0.0000       0.045318         1.2332 
 117   0.0000       0.050852         1.3838 
*Only the first 10 virtual orbitals were printed.

                    ********************************
                    * MULLIKEN POPULATION ANALYSIS *
                    ********************************

-----------------------
MULLIKEN ATOMIC CHARGES
-----------------------
   0 S :    0.782791
   1 S :    0.799470
   2 F :   -0.175970
   3 F :   -0.168632
   4 F :   -0.155265
   5 F :   -0.145661
   6 F :   -0.190089
   7 F :   -0.160326
   8 O :   -0.510680
   9 O :   -0.477545
  10 O :   -0.427921
  11 O :   -0.525734
  12 N :   -0.455336
  13 C :    0.449327
  14 C :    0.443478
  15 N :    0.032448
  16 N :    0.004596
  17 C :   -0.172612
  18 C :   -0.247196
  19 C :   -0.110426
  20 C :    0.035205
  21 C :   -0.079507
  22 C :   -0.046210
  23 C :   -0.365802
  24 C :   -0.297872
  25 H :    0.134329
  26 H :    0.176385
  27 H :    0.114550
  28 H :    0.125226
  29 H :    0.106780
  30 H :    0.097436
  31 H :    0.201415
  32 H :    0.168339
  33 H :    0.191752
  34 H :    0.125129
  35 H :    0.117271
  36 H :    0.112386
  37 H :    0.148297
  38 H :    0.137407
  39 H :    0.208768
Sum of atomic charges:   -0.0000000

--------------------------------
MULLIKEN REDUCED ORBITAL CHARGES
--------------------------------
  0 S s       :     5.380277  s :     5.380277
      pz      :     2.923019  p :     8.616796
      px      :     2.918969
      py      :     2.774809
      dz2     :     0.220169  d :     1.119842
      dxz     :     0.223770
      dyz     :     0.205735
      dx2y2   :     0.227686
      dxy     :     0.242481
      f0      :     0.011193  f :     0.100294
      f+1     :     0.010418
      f-1     :     0.011516
      f+2     :     0.019546
      f-2     :     0.010714
      f+3     :     0.023505
      f-3     :     0.013402

  1 S s       :     5.415265  s :     5.415265
      pz      :     2.873792  p :     8.665364
      px      :     2.961844
      py      :     2.829728
      dz2     :     0.201429  d :     1.027909
      dxz     :     0.199329
      dyz     :     0.244964
      dx2y2   :     0.156766
      dxy     :     0.225419
      f0      :     0.015502  f :     0.091992
      f+1     :     0.006359
      f-1     :     0.019170
      f+2     :     0.010008
      f-2     :     0.015843
      f+3     :     0.016455
      f-3     :     0.008655

  2 F s       :     3.920350  s :     3.920350
      pz      :     1.641715  p :     5.240450
      px      :     1.780776
      py      :     1.817960
      dz2     :     0.003326  d :     0.014543
      dxz     :     0.004373
      dyz     :     0.003477
      dx2y2   :     0.001323
      dxy     :     0.002045
      f0      :     0.000082  f :     0.000627
      f+1     :     0.000134
      f-1     :     0.000104
      f+2     :     0.000081
      f-2     :     0.000162
      f+3     :     0.000030
      f-3     :     0.000034

  3 F s       :     3.914821  s :     3.914821
      pz      :     1.894619  p :     5.237978
      px      :     1.563468
      py      :     1.779891
      dz2     :     0.002168  d :     0.015168
      dxz     :     0.002699
      dyz     :     0.001001
      dx2y2   :     0.003679
      dxy     :     0.005620
      f0      :     0.000060  f :     0.000665
      f+1     :     0.000099
      f-1     :     0.000040
      f+2     :     0.000034
      f-2     :     0.000080
      f+3     :     0.000124
      f-3     :     0.000228

  4 F s       :     3.913960  s :     3.913960
      pz      :     1.860383  p :     5.224836
      px      :     1.874038
      py      :     1.490415
      dz2     :     0.002135  d :     0.015763
      dxz     :     0.000539
      dyz     :     0.004015
      dx2y2   :     0.005572
      dxy     :     0.003501
      f0      :     0.000071  f :     0.000707
      f+1     :     0.000011
      f-1     :     0.000124
      f+2     :     0.000118
      f-2     :     0.000051
      f+3     :     0.000153
      f-3     :     0.000180

  5 F s       :     3.907336  s :     3.907336
      pz      :     1.861308  p :     5.220266
      px      :     1.871814
      py      :     1.487143
      dz2     :     0.002275  d :     0.017257
      dxz     :     0.000584
      dyz     :     0.004752
      dx2y2   :     0.005869
      dxy     :     0.003778
      f0      :     0.000085  f :     0.000801
      f+1     :     0.000011
      f-1     :     0.000133
      f+2     :     0.000157
      f-2     :     0.000057
      f+3     :     0.000163
      f-3     :     0.000195

  6 F s       :     3.917854  s :     3.917854
[...]
      f+3     :     0.004849
      f-3     :     0.004140

 24 C s       :     2.837512  s :     2.837512
      pz      :     1.060277  p :     3.066425
      px      :     1.107000
      py      :     0.899147
      dz2     :     0.053281  d :     0.288757
      dxz     :     0.039710
      dyz     :     0.078575
      dx2y2   :     0.063317
      dxy     :     0.053873
      f0      :     0.003538  f :     0.038170
      f+1     :     0.002722
      f-1     :     0.008556
      f+2     :     0.006394
      f-2     :     0.004849
      f+3     :     0.006163
      f-3     :     0.005948

 25 H s       :     0.787804  s :     0.787804
      pz      :     0.018525  p :     0.063173
      px      :     0.022637
      py      :     0.022011

 26 H s       :     0.785479  s :     0.785479
      pz      :     0.024157  p :     0.061444
      px      :     0.026940
      py      :     0.010348

 27 H s       :     0.806802  s :     0.806802
      pz      :     0.020146  p :     0.058435
      px      :     0.025074
      py      :     0.013215

 28 H s       :     0.804222  s :     0.804222
      pz      :     0.015394  p :     0.058506
      px      :     0.019999
      py      :     0.023113

 29 H s       :     0.804399  s :     0.804399
      pz      :     0.021299  p :     0.058399
      px      :     0.024483
      py      :     0.012617

 30 H s       :     0.805603  s :     0.805603
      pz      :     0.029413  p :     0.058379
      px      :     0.015861
      py      :     0.013106

 31 H s       :     0.771411  s :     0.771411
      pz      :     0.025872  p :     0.074004
      px      :     0.040030
      py      :     0.008102

 32 H s       :     0.786013  s :     0.786013
      pz      :     0.018845  p :     0.063267
      px      :     0.018312
      py      :     0.026109

 33 H s       :     0.788473  s :     0.788473
      pz      :     0.014652  p :     0.063078
      px      :     0.032330
      py      :     0.016096

 34 H s       :     0.818021  s :     0.818021
      pz      :     0.013452  p :     0.060796
      px      :     0.019735
      py      :     0.027609

 35 H s       :     0.817756  s :     0.817756
      pz      :     0.032395  p :     0.061491
      px      :     0.015718
      py      :     0.013378

 36 H s       :     0.821830  s :     0.821830
      pz      :     0.021119  p :     0.060401
      px      :     0.026114
      py      :     0.013168

 37 H s       :     0.814406  s :     0.814406
      pz      :     0.021042  p :     0.061485
      px      :     0.018686
      py      :     0.021757

 38 H s       :     0.804927  s :     0.804927
      pz      :     0.014076  p :     0.062195
      px      :     0.035830
      py      :     0.012289

 39 H s       :     0.796087  s :     0.796087
      pz      :     0.035003  p :     0.064921
      px      :     0.019781
      py      :     0.010137



                      *****************************
                      * MAYER POPULATION ANALYSIS *
                      *****************************

  NA   - Mulliken gross atomic population
  ZA   - Total nuclear charge
  QA   - Mulliken gross atomic charge
  VA   - Mayer's total valence
  BVA  - Mayer's bonded valence
  FA   - Mayer's free valence

  ATOM       NA         ZA         QA         VA         BVA        FA
  0 S     15.1840    16.0000     0.8160     5.8138     5.8138    -0.0000
  1 S     15.2140    16.0000     0.7860     5.8305     5.8305     0.0000
  2 F      9.1579     9.0000    -0.1579     1.1554     1.1554     0.0000
  3 F      9.1610     9.0000    -0.1610     1.1508     1.1508    -0.0000
  4 F      9.1603     9.0000    -0.1603     1.1506     1.1506     0.0000
  5 F      9.1569     9.0000    -0.1569     1.1563     1.1563    -0.0000
  6 F      9.1582     9.0000    -0.1582     1.1534     1.1534    -0.0000
  7 F      9.1574     9.0000    -0.1574     1.1530     1.1530     0.0000
  8 O      8.4935     8.0000    -0.4935     1.9998     1.9998     0.0000
  9 O      8.4838     8.0000    -0.4838     1.9829     1.9829    -0.0000
 10 O      8.4530     8.0000    -0.4530     2.0214     2.0214    -0.0000
 11 O      8.5098     8.0000    -0.5098     1.9532     1.9532    -0.0000
 12 N      7.4596     7.0000    -0.4596     2.6992     2.6992    -0.0000
 13 C      5.5508     6.0000     0.4492     4.4620     4.4620     0.0000
 14 C      5.5501     6.0000     0.4499     4.4463     4.4463    -0.0000
 15 N      6.9744     7.0000     0.0256     3.4293     3.4293    -0.0000
 16 N      7.0150     7.0000    -0.0150     3.4544     3.4544     0.0000
 17 C      6.2464     6.0000    -0.2464     3.7390     3.7390     0.0000
 18 C      6.1357     6.0000    -0.1357     3.7959     3.7959    -0.0000
 19 C      6.1422     6.0000    -0.1422     3.8503     3.8503     0.0000
 20 C      6.0334     6.0000    -0.0334     3.8953     3.8953    -0.0000
 21 C      6.0834     6.0000    -0.0834     3.9648     3.9648     0.0000
 22 C      6.0340     6.0000    -0.0340     3.8937     3.8937     0.0000
 23 C      6.3650     6.0000    -0.3650     3.8952     3.8952     0.0000
 24 C      6.2658     6.0000    -0.2658     3.7997     3.7997    -0.0000
 25 H      0.8136     1.0000     0.1864     0.9786     0.9786     0.0000
 26 H      0.8363     1.0000     0.1637     0.9872     0.9872     0.0000
 27 H      0.9042     1.0000     0.0958     0.9777     0.9777     0.0000
 28 H      0.8968     1.0000     0.1032     0.9718     0.9718    -0.0000
 29 H      0.8981     1.0000     0.1019     0.9689     0.9689     0.0000
 30 H      0.8992     1.0000     0.1008     0.9641     0.9641     0.0000
 31 H      0.7659     1.0000     0.2341     0.9953     0.9953    -0.0000
 32 H      0.8370     1.0000     0.1630     0.9786     0.9786     0.0000
 33 H      0.8351     1.0000     0.1649     0.9717     0.9717     0.0000
 34 H      0.8807     1.0000     0.1193     0.9680     0.9680     0.0000
 35 H      0.8711     1.0000     0.1289     0.9682     0.9682    -0.0000
 36 H      0.8987     1.0000     0.1013     0.9683     0.9683     0.0000
 37 H      0.8643     1.0000     0.1357     0.9541     0.9541    -0.0000
 38 H      0.8549     1.0000     0.1451     0.9693     0.9693     0.0000
 39 H      0.7986     1.0000     0.2014     0.9641     0.9641    -0.0000

  Mayer bond orders larger than 0.100000
B(  0-S ,  8-O ) :   1.8028 B(  0-S ,  9-O ) :   1.7765 B(  0-S , 12-N ) :   1.2413 
B(  0-S , 13-C ) :   0.8481 B(  1-S , 10-O ) :   1.8441 B(  1-S , 11-O ) :   1.7379 
B(  1-S , 12-N ) :   1.2507 B(  1-S , 14-C ) :   0.8381 B(  2-F , 13-C ) :   1.1343 
B(  3-F , 13-C ) :   1.1377 B(  4-F , 13-C ) :   1.1320 B(  5-F , 14-C ) :   1.1433 
B(  6-F , 14-C ) :   1.1401 B(  7-F , 14-C ) :   1.1315 B( 15-N , 17-C ) :   0.8613 
B( 15-N , 20-C ) :   1.3518 B( 15-N , 21-C ) :   1.1586 B( 16-N , 20-C ) :   1.3568 
B( 16-N , 22-C ) :   1.1602 B( 16-N , 24-C ) :   0.8849 B( 17-C , 18-C ) :   0.9210 
B( 17-C , 25-H ) :   0.9589 B( 17-C , 26-H ) :   0.9506 B( 18-C , 19-C ) :   0.9680 
B( 18-C , 27-H ) :   0.9752 B( 18-C , 28-H ) :   0.9624 B( 19-C , 23-C ) :   0.9593 
B( 19-C , 29-H ) :   0.9693 B( 19-C , 30-H ) :   0.9699 B( 20-C , 31-H ) :   0.8994 
B( 21-C , 22-C ) :   1.6645 B( 21-C , 32-H ) :   0.9528 B( 22-C , 33-H ) :   0.9436 
B( 23-C , 34-H ) :   0.9737 B( 23-C , 35-H ) :   0.9770 B( 23-C , 36-H ) :   0.9718 
B( 24-C , 37-H ) :   0.9556 B( 24-C , 38-H ) :   0.9645 B( 24-C , 39-H ) :   0.9450 


-------
TIMINGS
-------

Total SCF time: 0 days 0 hours 0 min 26 sec 

Total time                  ....      26.597 sec
Sum of individual times     ....      26.482 sec  ( 99.6%)

SCF preparation             ....       0.688 sec  (  2.6%)
Fock matrix formation       ....      24.059 sec  ( 90.5%)
  Startup                   ....       0.038 sec  (  0.2% of F)
  Split-RI-J                ....       1.429 sec  (  5.9% of F)
  Chain of spheres X        ....      21.079 sec  ( 87.6% of F)
  XC integration            ....       1.422 sec  (  5.9% of F)
    Basis function eval.    ....       0.294 sec  ( 20.7% of XC)
    Density eval.           ....       0.427 sec  ( 30.1% of XC)
    XC-Functional eval.     ....       0.025 sec  (  1.7% of XC)
    XC-Potential eval.      ....       0.574 sec  ( 40.3% of XC)
Diagonalization             ....       0.000 sec  (  0.0%)
Density matrix formation    ....       0.095 sec  (  0.4%)
Total Energy calculation    ....       0.060 sec  (  0.2%)
Population analysis         ....       0.434 sec  (  1.6%)
Orbital Transformation      ....       0.246 sec  (  0.9%)
Orbital Orthonormalization  ....       0.000 sec  (  0.0%)
DIIS solution               ....       0.313 sec  (  1.2%)
SOSCF solution              ....       0.588 sec  (  2.2%)
Finished LeanSCF after  26.9 sec

Maximum memory used throughout the entire LEANSCF-calculation: 139.8 MB


-------------------------------------------------------------------------------
                          DFT DISPERSION CORRECTION                            
                                                                               
                                DFTD4 V3.4.0                                   
-------------------------------------------------------------------------------
The B3LYP functional is recognized
Active option DFTDOPT                   ...         5   

-------------------------   ----------------
Dispersion correction           -0.092014623
-------------------------   ----------------


-------------------------   --------------------
FINAL SINGLE POINT ENERGY     -2250.588706238806
-------------------------   --------------------

                                *** OPTIMIZATION RUN DONE ***

--------------------------------------------------------------------------
WARNING: There was an error initializing an OpenFabrics device.

  Local host:   ga00
  Local device: mlx5_0
--------------------------------------------------------------------------


           ************************************************************
           *        Program running with 15 parallel MPI-processes    *
           *              working on a common directory               *
           ************************************************************

------------------------------------------------------------------------------
                              ORCA PROPERTY CALCULATIONS
------------------------------------------------------------------------------

GBWName                                 ... cluster_2_IONIC_LIQUID0001_final_coord.gbw
Number of atoms                         ...     40
Number of basis functions               ...    877
Max core memory                         ...   5000 MB

Electric properties:
Dipole moment                           ... YES
Quadrupole moment                       ...  NO
Static polarizability (Dipole/Dipole)   ...  NO
Static polarizability (Dipole/Quad.)    ...  NO
Static polarizability (Quad./Quad.)     ...  NO
Static polarizability (Velocity)        ...  NO

Atomic electric properties:
Dipole moment                           ...  NO
Quadrupole moment                       ...  NO
Static polarizability                   ...  NO

Choice of electric origin               ... Center of mass
Position of electric origin             ...     2.164838     0.737929     5.072640

General magnetic properties:
Magnetizability                         ...  NO

EPR properties:
g-Tensor (aka g-matrix)                 ...  NO
Zero-Field splitting spin-orbit         ...  NO
Zero-field splitting spin-spin          ...  NO
Hyperfine couplings                     ...  NO (   0 nuclei)
Quadrupole couplings                    ...  NO (   0 nuclei)
Contact density                         ...  NO (   0 nuclei)

NMR properties:
Chemical shifts                         ...  NO (   0 nuclei)
Spin-rotation constants                 ...  NO (   0 nuclei)
Spin-spin couplings                     ...  NO (   0 nuclei,    0 pairs)

Choice of magnetic origin               ... GIAO
Position of magnetic origin             ...     0.000000     0.000000     0.000000

Properties with geometric perturbations:
SCF Hessian                             ...  NO
IR spectrum                             ...  NO
VCD spectrum                            ...  NO
X-ray spectroscopy properties:
SCF XES/XAS/RIXS spectra                ...  NO


-------------
DIPOLE MOMENT
-------------

Method             : SCF
Type of density    : Electron Density
Multiplicity       :   1
Irrep              :   0
Energy             : -2250.4966916153994134 Eh
Relativity type    : 
Basis              : AO
                                X                 Y                 Z
Electronic contribution:     -9.890304108       7.438304804      53.664694681
Nuclear contribution   :      9.929301470      -6.576232334     -57.517196382
                        -----------------------------------------
Total Dipole Moment    :      0.038997362       0.862072470      -3.852501700
                        -----------------------------------------
Magnitude (a.u.)       :      3.947968983
Magnitude (Debye)      :     10.034939664



--------------------
Rotational spectrum 
--------------------
 
Rotational constants in cm-1:             0.007691             0.005003             0.004684 
Rotational constants in MHz :           230.566033           149.985092           140.436016 

Dipole components along the rotational axes: 
x,y,z [a.u.] :    -3.667772     0.502844    -1.371517 
x,y,z [Debye]:    -9.322734     1.278128    -3.486119 

 

Dipole moment calculation done in   0.1 sec 

Maximum memory used throughout the entire PROP-calculation: 77.4 MB
[ga00:1922945] 14 more processes have sent help message help-mpi-btl-openib.txt / error in device init
[ga00:1922945] Set MCA parameter "orte_base_help_aggregate" to 0 to see all help / error messages
--------------------------------------------------------------------------
WARNING: There was an error initializing an OpenFabrics device.

  Local host:   ga00
  Local device: mlx5_0
--------------------------------------------------------------------------
[ga00:1923022] 14 more processes have sent help message help-mpi-btl-openib.txt / error in device init
[ga00:1923022] Set MCA parameter "orte_base_help_aggregate" to 0 to see all help / error messages

--------------------------------
SUGGESTED CITATIONS FOR THIS RUN
--------------------------------

Below you find a list of papers that are relevant to this ORCA run
We neither can nor want to force you to cite these papers, but we appreciate if you do
You receive ORCA, which is the product of decades of hard work by many enthusiastic individuals, for free
The only thing we kindly ask in return is that you cite our papers,
We deeply appreciate it, if you show your appreciation for ORCA by not just citing the generic ORCA reference.

Please note that relegating all ORCA citations to the supporting information does *not* help us.
SI sections are not indexed - citations you put there will not count into any citation statistics
But we need these citations in order to attract the funding resources that allow us to do what we are doing

Therefore, if you are a happy ORCA user, please consider citing a few of the papers listed below in the main body of your paper

In addition to the list printed below, the program has created the file cluster_2_IONIC_LIQUID0001_final_coord.bibtex that contains the list in bibtex format
You can import this file easily into all common literature databanks and citation aid programs


List of essential papers. We consider these as the minimum necessary citations

  1. Neese,F.
     Software update: the ORCA program system, version 5.0
     WIRES Comput. Molec. Sci., 2022 12(1)e1606
     doi.org/10.1002/wcms.1606

List of papers to cite with high priority. The work reported in these papers was absolutely
necessary for this run to complete.
Our perspective: the developers of density functionals and basis sets usually get cited in chemistry papers
Good! But without the algorithms to do something with them, the functionals or basis sets would not do anything.
Hence, in our opinion, the algorithm design and method developments papers are equally worthy of getting cited

  1. Neese,F.
     An improvement of the resolution of the identity approximation for the formation of the Coulomb matrix
     J. Comp. Chem., 2003 24(14)1740-1747
     doi.org/10.1002/jcc.10318
  2. Neese,F.; Wennmohs,F.; Hansen,A.; Becker,U.
     Efficient, approximate and parallel Hartree-Fock and hybrid DFT calculations. A 'chain-of-spheres' algorithm for the Hartree-Fock exchange
     Chem. Phys., 2009 356(1-3)98-109
     doi.org/10.1016/j.chemphys.2008.10.036
  3. Helmich-Paris,B.; de Souza,B.; Neese,F.; Izsák,R.
     An improved chain of spheres for exchange algorithm
     J. Chem. Phys., 2021 155 104109
     doi.org/doi: 10.1063/5.0058766.
  4. Neese,F.
     The SHARK Integral Generation and Digestion System
     J. Comp. Chem., 2022  1-16
     doi.org/10.1002/jcc.26942
  5. Caldeweyher,E.; Bannwarth,C.; Grimme,S.
     Extension of the D3 dispersion coefficient model
     J. Chem. Phys., 2017 147 034112
     doi.org/10.1063/1.4993215
  6. Caldeweyher,E.; Ehlert,S.; Hansen,A.; Neugebauer,H.; Spicher,S.; Bannwarth,C.; Grimme,S.
     A generally applicable atomic-charge dependent London dispersion correction
     J. Chem. Phys., 2019 150 154122
     doi.org/10.1063/1.5090222
  7. Caldeweyher,E.; Mewes,J.; Ehlert,S.; Grimme,S.
     Extension and evaluation of the D4 London-dispersion model for periodic systems
     Phys. Chem. Chem. Phys., 2020 22(16)8499-8512
     doi.org/10.1039/D0CP00502A
  8. Wittmann,L.; Gordiy,I.; Friede,M.; Helmich-Paris,B.; Grimme,S.; Hansen,A.; Bursch,M.
     Extension of the D3 and D4 London Dispersion Corrections to the full Actinides Series
     Phys. Chem. Chem. Phys., 2024 26(32)21379-21394
     doi.org/https://doi.org/10.1039/D4CP01514B 

List of suggested additional citations. These are papers that are important in the 'surrounding' of 
of this run, or papers that preceded the highly important papers. If you like your results we are grateful for a citation.

  1. Izsak,R.; Neese,F.
     An overlap fitted chain of spheres exchange method
     J. Chem. Phys., 2011 135 144105
     doi.org/10.1063/1.3646921
  2. Izsak,R.; Hansen,A.; Neese,F.
     The resolution of identity and chain of spheres approximations for the LPNO-CCSD singles Fock term
     Molec. Phys., 2012 110 2413-2417
     doi.org/10.1080/00268976.2012.687466
  3. Neese,F.
     The ORCA program system
     WIRES Comput. Molec. Sci., 2012 2(1)73-78
     doi.org/10.1002/wcms.81
  4. Izsak,R.; Neese,F.; Klopper,W.
     Robust fitting techniques in the chain of spheres approximation to the Fock exchange: The role of the complementary space
     J. Chem. Phys., 2013 139 
     doi.org/10.1063/1.4819264
  5. Neese,F.
     Software update: the ORCA program system, version 4.0
     WIRES Comput. Molec. Sci., 2018 8(1)1-6
     doi.org/10.1002/wcms.1327
  6. Neese,F.; Wennmohs,F.; Becker,U.; Riplinger,C.
     The ORCA quantum chemistry program package
     J. Chem. Phys., 2020 152 Art. No. L224108
     doi.org/10.1063/5.0004608

List of optional additional citations

  1. Neese,F.
     Approximate second-order SCF convergence for spin unrestricted wavefunctions
     Chem. Phys. Lett., 2000 325(1-3)93-98
     doi.org/10.1016/s0009-2614(00)00662-x

Timings for individual modules:

Sum of individual times          ...     4177.222 sec (=  69.620 min)
Startup calculation              ...      210.084 sec (=   3.501 min)   5.0 %
SCF iterations                   ...     2771.781 sec (=  46.196 min)  66.4 %
Property calculations            ...        0.924 sec (=   0.015 min)   0.0 %
SCF Gradient evaluation          ...     1193.284 sec (=  19.888 min)  28.6 %
Geometry relaxation              ...        1.149 sec (=   0.019 min)   0.0 %
                             ****ORCA TERMINATED NORMALLY****
TOTAL RUN TIME: 0 days 1 hours 10 minutes 19 seconds 342 msec
