
     Program PWSCF v.7.3.1 starts on 10Apr2025 at  1:50:12 

     This program is part of the open-source Quantum ESPRESSO suite
     for quantum simulation of materials; please cite
         "P. Giannozzi et al., J. Phys.:Condens. Matter 21 395502 (2009);
         "P. Giannozzi et al., J. Phys.:Condens. Matter 29 465901 (2017);
         "P. Giannozzi et al., J. Chem. Phys. 152 154105 (2020);
          URL http://www.quantum-espresso.org", 
     in publications or presentations arising from this work. More details at
     http://www.quantum-espresso.org/quote

     Parallel version (MPI), running on    33 processors

     MPI processes distributed on     1 nodes
     1020 MiB available memory on the printing compute node when the environment starts

     Waiting for input...
     Reading input from standard input

     Current dimensions of program PWSCF are:
     Max number of different atomic species (ntypx) = 10
     Max number of k-points (npk) =  40000
     Max angular momentum in pseudopotentials (lmaxx) =  4
     file C.pbe-n-kjpaw_psl.1.0.0.UPF: wavefunction(s)  2S 2P renormalized
     file O.pbe-n-kjpaw_psl.0.1.UPF: wavefunction(s)  2P renormalized

     R & G space division:  proc/nbgrp/npool/nimage =      33
     Subspace diagonalization in iterative solution of the eigenvalue problem:
     one sub-group per band group will be used
     custom distributed-memory algorithm (size of sub-group:  3*  3 procs)


     Parallelization info
     --------------------
     sticks:   dense  smooth     PW     G-vecs:    dense   smooth      PW
     Min         505     252     62                42378    14977    1869
     Max         506     253     63                42382    14982    1875
     Sum       16689    8335   2077              1398533   494311   61809

     Using Slab Decomposition



     bravais-lattice index     =            0
     lattice parameter (alat)  =      30.7168  a.u.
     unit-cell volume          =   22271.6335 (a.u.)^3
     number of atoms/cell      =          132
     number of atomic types    =            5
     number of electrons       =       568.00
     number of Kohn-Sham states=          284
     kinetic-energy cutoff     =      30.0000  Ry
     charge density cutoff     =     240.0000  Ry
     scf convergence threshold =      1.0E-06
     mixing beta               =       0.4000
     number of iterations used =            8  plain     mixing
     Exchange-correlation= SLA  PW   PBX  PBC
                           (   1   4   3   4   0   0   0)

     celldm(1)=  30.716808  celldm(2)=   0.000000  celldm(3)=   0.000000
     celldm(4)=   0.000000  celldm(5)=   0.000000  celldm(6)=   0.000000

     crystal axes: (cart. coord. in units of alat)
               a(1) = (   1.000000   0.000000   0.000000 )  
               a(2) = (  -0.378163   0.925739   0.000000 )  
               a(3) = (  -0.310919  -0.462870   0.830109 )  

     reciprocal axes: (cart. coord. in units 2 pi/alat)
               b(1) = (  1.000000  0.408499  0.602330 )  
               b(2) = ( -0.000000  1.080218  0.602330 )  
               b(3) = (  0.000000 -0.000000  1.204661 )  


     PseudoPot. # 1 for Ti read from file:
     /home/ys/qepseudo/SSSP_1.3.0_PBE_efficiency/ti_pbe_v1.4.uspp.F.UPF
     MD5 check sum: 88a00a6731bd790ddea75d31a80cb452
     Pseudo is Ultrasoft + core correction, Zval = 12.0
     Generated by new atomic code, or converted to UPF format
     Using radial grid of  851 points,  6 beta functions with: 
                l(1) =   0
                l(2) =   0
                l(3) =   1
                l(4) =   1
                l(5) =   2
                l(6) =   2
     Q(r) pseudized with  6 coefficients,  rinner =    1.000   1.000   1.000
                                                       1.000   1.000

     PseudoPot. # 2 for N  read from file:
     /home/ys/qepseudo/SSSP_1.3.0_PBE_efficiency/N.pbe-n-radius_5.UPF
     MD5 check sum: 16739722b17309cd8fe442a2ace49922
     Pseudo is Ultrasoft + core correction, Zval =  5.0
     Generated using "atomic" code by A. Dal Corso  v.5.1
     Using radial grid of 1085 points,  4 beta functions with: 
                l(1) =   0
                l(2) =   0
                l(3) =   1
                l(4) =   1
     Q(r) pseudized with 0 coefficients 


     PseudoPot. # 3 for C  read from file:
     /home/ys/qepseudo/SSSP_1.3.0_PBE_efficiency/C.pbe-n-kjpaw_psl.1.0.0.UPF
     MD5 check sum: 5d2aebdfa2cae82b50a7e79e9516da0f
     Pseudo is Projector augmented-wave + core cor, Zval =  4.0
     Generated using "atomic" code by A. Dal Corso  v.5.1
     Shape of augmentation charge: PSQ
     Using radial grid of 1073 points,  4 beta functions with: 
                l(1) =   0
                l(2) =   0
                l(3) =   1
                l(4) =   1
     Q(r) pseudized with 0 coefficients 


     PseudoPot. # 4 for H  read from file:
     /home/ys/qepseudo/SSSP_1.3.0_PBE_efficiency/H.pbe-rrkjus_psl.1.0.0.UPF
     MD5 check sum: f52b6d4d1c606e5624b1dc7b2218f220
     Pseudo is Ultrasoft, Zval =  1.0
     Generated using "atomic" code by A. Dal Corso  v.5.1
     Using radial grid of  929 points,  2 beta functions with: 
                l(1) =   0
                l(2) =   0
     Q(r) pseudized with 0 coefficients 


     PseudoPot. # 5 for O  read from file:
     /home/ys/qepseudo/SSSP_1.3.0_PBE_efficiency/O.pbe-n-kjpaw_psl.0.1.UPF
     MD5 check sum: 0234752ac141de4415c5fc33072bef88
     Pseudo is Projector augmented-wave + core cor, Zval =  6.0
     Generated using "atomic" code by A. Dal Corso  v.5.0.99 svn rev. 10869
     Shape of augmentation charge: BESSEL
     Using radial grid of 1095 points,  4 beta functions with: 
                l(1) =   0
                l(2) =   0
                l(3) =   1
                l(4) =   1
     Q(r) pseudized with 0 coefficients 


     atomic species   valence    mass     pseudopotential
     Ti               12.00    47.86700     Ti( 1.00)
     N                 5.00    14.00674     N ( 1.00)
     C                 4.00    12.01070     C ( 1.00)
     H                 1.00     1.00794     H ( 1.00)
     O                 6.00    15.99940     O ( 1.00)

     No symmetry found


                                    s                        frac. trans.

      isym =  1     identity                                     

 cryst.   s( 1) = (     1          0          0      )
                  (     0          1          0      )
                  (     0          0          1      )

 cart.    s( 1) = (  1.0000000  0.0000000  0.0000000 )
                  (  0.0000000  1.0000000  0.0000000 )
                  (  0.0000000  0.0000000  1.0000000 )


   Cartesian axes

     site n.     atom                  positions (alat units)
         1        Ti     tau(   1) = (  -0.1943417   0.1305430   0.7153135  )
         2        Ti     tau(   2) = (   0.5052601   0.3323264   0.1147958  )
         3        Ti     tau(   3) = (   0.0952930  -0.0640103   0.5959936  )
         4        Ti     tau(   4) = (   0.2156253   0.5268797   0.2341157  )
         5        Ti     tau(   5) = (   0.1165768   0.5934126   0.1147958  )
         6        Ti     tau(   6) = (   0.1943416  -0.1305432   0.7153135  )
         7        Ti     tau(   7) = (  -0.0952931   0.0640101   0.5959936  )
         8        Ti     tau(   8) = (   0.4062115   0.3988592   0.2341157  )
         9        H      tau(   9) = (   0.2273033   0.1012540   0.4517679  )
        10        H      tau(  10) = (  -0.0077772  -0.2487142   0.4517679  )
        11        H      tau(  11) = (   0.3186955   0.7115836   0.3783414  )
        12        H      tau(  12) = (  -0.1965246   0.3859474   0.6978820  )
        13        H      tau(  13) = (   0.5074430   0.0769219   0.1322273  )
        14        H      tau(  14) = (  -0.4316051   0.0359792   0.6978820  )
        15        H      tau(  15) = (   0.7425234   0.4268902   0.1322273  )
        16        H      tau(  16) = (   0.1965245  -0.3859476   0.6978820  )
        17        H      tau(  17) = (  -0.1206866   0.4988488   0.1322273  )
        18        H      tau(  18) = (   0.3031413   0.2141553   0.3783414  )
        19        H      tau(  19) = (   0.0077771   0.2487141   0.4517679  )
        20        H      tau(  20) = (  -0.2273034  -0.1012542   0.4517679  )
        21        H      tau(  21) = (   0.2092045   0.5311927   0.0000000  )
        22        H      tau(  22) = (   0.4126324   0.3945463   0.0000000  )
        23        H      tau(  23) = (  -0.0000001  -0.0000001   0.7075785  )
        24        H      tau(  24) = (   0.3109184   0.4628695   0.1225308  )
        25        H      tau(  25) = (   0.2215666  -0.1488306   0.3760320  )
        26        H      tau(  26) = (   0.0893518   0.6117000   0.4540772  )
        27        H      tau(  27) = (  -0.3769339   0.2531937   0.5631968  )
        28        H      tau(  28) = (   0.6878522   0.2096757   0.2669125  )
        29        H      tau(  29) = (  -0.2215666   0.1488305   0.3760320  )
        30        H      tau(  30) = (  -0.0660154   0.7160632   0.2669125  )
        31        H      tau(  31) = (   0.0510710   0.4119012   0.3948676  )
        32        H      tau(  32) = (   0.0666821   0.4031713   0.3353614  )
        33        H      tau(  33) = (   0.1121090   0.7945726   0.1624469  )
        34        H      tau(  34) = (   0.4896740  -0.0778133   0.1942901  )
        35        H      tau(  35) = (   0.4148455  -0.0211406   0.6399180  )
        36        H      tau(  36) = (   0.3992774  -0.0764526   0.6635636  )
        37        H      tau(  37) = (   0.5726051   0.5310571   0.3385257  )
        38        H      tau(  38) = (   0.5533155   0.5053482   0.3917033  )
        39        H      tau(  39) = (   0.4800361   0.3207201   0.4867173  )
        40        H      tau(  40) = (   0.4983084   0.3655456   0.4477597  )
        41        H      tau(  41) = (   0.3839784  -0.2911586   0.6118789  )
        42        H      tau(  42) = (   0.3917397  -0.2299066   0.6188689  )
        43        C      tau(  43) = (   0.5510999   0.3015349   0.2893371  )
        44        C      tau(  44) = (  -0.2401815   0.1613345   0.5407722  )
        45        C      tau(  45) = (   0.2401814  -0.1613346   0.5407722  )
        46        C      tau(  46) = (   0.0707370   0.6242040   0.2893371  )
        47        C      tau(  47) = (   0.6049578   0.2653575   0.3542176  )
        48        C      tau(  48) = (  -0.2940394   0.1975119   0.4758917  )
        49        C      tau(  49) = (   0.2940393  -0.1975120   0.4758917  )
        50        C      tau(  50) = (   0.0168790   0.6603814   0.3542176  )
        51        C      tau(  51) = (   0.5864332   0.2778008   0.4376842  )
        52        C      tau(  52) = (  -0.2755148   0.1850686   0.3924250  )
        53        C      tau(  53) = (   0.3633258  -0.2440531   0.4982075  )
        54        C      tau(  54) = (  -0.0524074   0.7069225   0.3319018  )
        55        C      tau(  55) = (   0.0354036   0.6479381   0.4376842  )
        56        C      tau(  56) = (   0.2755148  -0.1850687   0.3924250  )
        57        C      tau(  57) = (   0.6742442   0.2188164   0.3319018  )
        58        C      tau(  58) = (  -0.3633259   0.2440530   0.4982075  )
        59        C      tau(  59) = (   0.1977491   0.2943924   0.3743511  )
        60        C      tau(  60) = (   0.1131693   0.1684770   0.4557582  )
        61        C      tau(  61) = (   0.4240877   0.6313465   0.3743511  )
        62        C      tau(  62) = (  -0.1131694  -0.1684772   0.4557582  )
        63        C      tau(  63) = (   0.5085015   0.0856540   0.0000000  )
        64        C      tau(  64) = (   0.1133354   0.8400850   0.0000000  )
        65        C      tau(  65) = (   0.7348401   0.4226082   0.0000000  )
        66        C      tau(  66) = (  -0.1130032   0.5031308   0.0000000  )
        67        C      tau(  67) = (   0.2425630   0.3611076   0.3297094  )
        68        C      tau(  68) = (   0.0683554   0.1017618   0.5003998  )
        69        C      tau(  69) = (   0.3792738   0.5646313   0.3297094  )
        70        C      tau(  70) = (  -0.0683555  -0.1017619   0.5003998  )
        71        C      tau(  71) = (   0.5162579   0.1772614   0.0000000  )
        72        C      tau(  72) = (   0.1055789   0.7484776   0.0000000  )
        73        C      tau(  73) = (   0.6529688   0.3807851   0.0000000  )
        74        C      tau(  74) = (  -0.0311319   0.5449538   0.0000000  )
        75        C      tau(  75) = (   0.1144289   0.3044172   0.3948166  )
        76        C      tau(  76) = (   0.1964894   0.1584522   0.4352927  )
        77        C      tau(  77) = (   0.3832988   0.7046882   0.3948166  )
        78        C      tau(  78) = (  -0.0723804  -0.2418188   0.4352927  )
        79        C      tau(  79) = (   0.5042245   0.0425840   0.0747547  )
        80        C      tau(  80) = (  -0.1933061   0.4202854   0.7553546  )
        81        C      tau(  81) = (   0.7730943   0.4428550   0.0747547  )
        82        C      tau(  82) = (  -0.4621760   0.0200144   0.7553546  )
        83        C      tau(  83) = (   0.5074079   0.6213217   0.3948166  )
        84        C      tau(  84) = (  -0.1964895  -0.1584523   0.4352927  )
        85        C      tau(  85) = (   0.2385380   0.2210507   0.3948166  )
        86        C      tau(  86) = (   0.0723803   0.2418187   0.4352927  )
        87        C      tau(  87) = (   0.4621758  -0.0200146   0.7553546  )
        88        C      tau(  88) = (  -0.1512574   0.4828840   0.0747547  )
        89        C      tau(  89) = (   0.1933060  -0.4202856   0.7553546  )
        90        C      tau(  90) = (   0.1176124   0.8831550   0.0747547  )
        91        N      tau(  91) = (   0.0836151   0.3616153   0.3783414  )
        92        N      tau(  92) = (   0.1143939   0.8488170   0.1322273  )
        93        N      tau(  93) = (   0.4316049  -0.0359794   0.6978820  )
        94        N      tau(  94) = (   0.5382218   0.5641235   0.3783414  )
        95        N      tau(  95) = (   0.5324850   0.3140388   0.4540772  )
        96        N      tau(  96) = (   0.3769338  -0.2531939   0.5631968  )
        97        O      tau(  97) = (   0.4885547   0.3435477   0.3121369  )
        98        O      tau(  98) = (  -0.1776363   0.1193217   0.5179724  )
        99        O      tau(  99) = (   0.2591077  -0.1740478   0.6161179  )
       100        O      tau( 100) = (   0.0518107   0.6369172   0.2139914  )
       101        O      tau( 101) = (   0.1332821   0.5821912   0.3121369  )
       102        O      tau( 102) = (   0.1776362  -0.1193218   0.5179724  )
       103        O      tau( 103) = (   0.5700262   0.2888217   0.2139914  )
       104        O      tau( 104) = (  -0.2591078   0.1740476   0.6161179  )
       105        O      tau( 105) = (   0.4060787   0.3080567   0.1653171  )
       106        O      tau( 106) = (  -0.0951603   0.1548126   0.6647922  )
       107        O      tau( 107) = (   0.4902207   0.4333203   0.1653171  )
       108        O      tau( 108) = (  -0.1793023   0.0295490   0.6647922  )
       109        O      tau( 109) = (   0.0951602  -0.1548128   0.6647922  )
       110        O      tau( 110) = (   0.2157581   0.6176822   0.1653171  )
       111        O      tau( 111) = (   0.1793022  -0.0295492   0.6647922  )
       112        O      tau( 112) = (   0.1316162   0.4924186   0.1653171  )
       113        O      tau( 113) = (   0.3179808   0.3491619   0.3116761  )
       114        O      tau( 114) = (  -0.0070624   0.1137075   0.5184331  )
       115        O      tau( 115) = (   0.4188527   0.4993315   0.3116761  )
       116        O      tau( 116) = (  -0.1079343  -0.0364622   0.5184331  )
       117        O      tau( 117) = (   0.2082893  -0.2488758   0.7608433  )
       118        O      tau( 118) = (   0.1026291   0.7117451   0.0692660  )
       119        O      tau( 119) = (   0.3091612  -0.0987061   0.7608433  )
       120        O      tau( 120) = (   0.0017572   0.5615755   0.0692660  )
       121        O      tau( 121) = (   0.3038560   0.5765770   0.3116761  )
       122        O      tau( 122) = (   0.0070623  -0.1137077   0.5184331  )
       123        O      tau( 123) = (   0.2029841   0.4264074   0.3116761  )
       124        O      tau( 124) = (   0.1079342   0.0364620   0.5184331  )
       125        O      tau( 125) = (   0.6200797   0.3641635   0.0692660  )
       126        O      tau( 126) = (  -0.3091613   0.0987059   0.7608433  )
       127        O      tau( 127) = (   0.5192078   0.2139938   0.0692660  )
       128        O      tau( 128) = (  -0.2082894   0.2488756   0.7608433  )
       129        O      tau( 129) = (   0.3109184   0.4628695   0.1822007  )
       130        O      tau( 130) = (  -0.0000001  -0.0000001   0.6479086  )
       131        O      tau( 131) = (   0.4621650   0.3612743   0.0000000  )
       132        O      tau( 132) = (   0.1596719   0.5644647   0.0000000  )

     --------------------------------------------
     DFT-D3 Dispersion Correction (3-body terms):
     --------------------------------------------
       Reference C6 values for interpolation: 

         atom   Coordination number   C6
         H          0.912             6.05
         H          0.000            15.18
         C          0.000            98.23
         C          0.987            86.49
         C          1.998            58.72
         C          2.999            51.56
         C          3.984            36.41
         N          0.000            50.54
         N          0.994            44.25
         N          2.014            39.35
         N          2.990            31.16
         O          0.000            31.01
         O          0.993            25.63
         O          1.989            20.74
         Ti         0.000          2723.84
         Ti         1.830           604.00
         Ti         3.868           643.18

       Values used:

         atom   Coordination number  R0_AB[au]  C6      C8
         Ti         7.249            3.557    643.18  76289.64
         Ti         7.250            3.557    643.18  76289.64
         Ti         7.250            3.557    643.18  76289.64
         Ti         7.253            3.557    643.18  76289.64
         Ti         7.253            3.557    643.18  76289.64
         Ti         7.254            3.557    643.18  76289.64
         Ti         7.249            3.557    643.18  76289.64
         Ti         7.254            3.557    643.18  76289.64
         H          1.004            2.062      6.18     74.67
         H          1.005            2.062      6.18     74.66
         H          1.004            2.062      6.18     74.67
         H          1.004            2.062      6.18     74.67
         H          1.005            2.062      6.18     74.66
         H          1.005            2.062      6.18     74.66
         H          1.004            2.062      6.18     74.67
         H          1.004            2.062      6.18     74.67
         H          1.004            2.062      6.18     74.67
         H          1.004            2.062      6.18     74.67
         H          1.005            2.062      6.18     74.66
         H          1.004            2.062      6.18     74.67
         H          1.062            2.062      6.14     74.16
         H          1.062            2.062      6.14     74.16
         H          1.062            2.062      6.14     74.16
         H          1.062            2.062      6.14     74.16
         H          1.004            2.062      6.18     74.67
         H          1.005            2.062      6.18     74.67
         H          1.005            2.062      6.18     74.67
         H          1.004            2.062      6.18     74.67
         H          1.004            2.062      6.18     74.67
         H          1.004            2.062      6.18     74.67
         H          1.085            2.062      6.12     74.01
         H          1.087            2.062      6.12     74.00
         H          1.090            2.062      6.12     73.98
         H          1.085            2.062      6.12     74.01
         H          1.085            2.062      6.12     74.01
         H          1.087            2.062      6.12     74.00
         H          1.085            2.062      6.12     74.01
         H          1.085            2.062      6.12     74.01
         H          1.085            2.062      6.12     74.01
         H          1.086            2.062      6.12     74.00
         H          1.085            2.062      6.12     74.01
         H          1.086            2.062      6.12     74.01
         C          3.355            2.750     47.39   1370.50
         C          3.343            2.750     47.65   1378.12
         C          3.354            2.750     47.39   1370.52
         C          3.344            2.750     47.64   1377.88
         C          3.358            2.750     47.31   1368.20
         C          3.188            2.750     50.18   1451.41
         C          3.358            2.750     47.31   1368.21
         C          3.188            2.750     50.18   1451.36
         C          3.189            2.750     50.17   1451.08
         C          3.165            2.750     50.40   1457.78
         C          3.189            2.750     50.17   1451.07
         C          3.165            2.750     50.40   1457.75
         C          3.329            2.750     47.96   1387.09
         C          3.166            2.750     50.40   1457.60
         C          3.166            2.750     50.40   1457.61
         C          3.329            2.750     47.96   1387.16
         C          3.360            2.750     47.26   1366.87
         C          3.188            2.750     50.18   1451.39
         C          3.360            2.750     47.26   1366.89
         C          3.188            2.750     50.18   1451.40
         C          3.188            2.750     50.18   1451.38
         C          3.360            2.750     47.26   1366.84
         C          3.360            2.750     47.26   1366.85
         C          3.188            2.750     50.18   1451.39
         C          3.223            2.750     49.78   1439.81
         C          3.212            2.750     49.92   1443.76
         C          3.223            2.750     49.78   1439.83
         C          3.212            2.750     49.92   1443.77
         C          3.212            2.750     49.92   1443.74
         C          3.223            2.750     49.78   1439.78
         C          3.223            2.750     49.78   1439.80
         C          3.212            2.750     49.92   1443.76
         C          3.189            2.750     50.17   1451.10
         C          3.165            2.750     50.40   1457.77
         C          3.166            2.750     50.40   1457.60
         C          3.328            2.750     47.99   1387.88
         C          3.328            2.750     47.99   1387.83
         C          3.166            2.750     50.40   1457.60
         C          3.166            2.750     50.40   1457.60
         C          3.328            2.750     47.99   1387.84
         C          3.189            2.750     50.17   1451.08
         C          3.165            2.750     50.40   1457.78
         C          3.166            2.750     50.40   1457.59
         C          3.328            2.750     47.99   1387.87
         C          3.189            2.750     50.17   1451.08
         C          3.165            2.750     50.40   1457.77
         C          3.165            2.750     50.40   1457.76
         C          3.189            2.750     50.17   1451.10
         N          3.369            2.478     31.17    687.68
         N          3.369            2.478     31.17    687.68
         N          3.370            2.478     31.17    687.68
         N          3.370            2.478     31.17    687.68
         N          3.368            2.478     31.17    687.69
         N          3.368            2.478     31.17    687.69
         O          2.054            2.345     20.79    419.59
         O          2.041            2.345     20.80    419.70
         O          2.054            2.345     20.79    419.59
         O          2.042            2.345     20.80    419.69
         O          2.042            2.345     20.80    419.69
         O          2.041            2.345     20.80    419.70
         O          2.041            2.345     20.80    419.70
         O          2.041            2.345     20.80    419.70
         O          2.010            2.345     20.81    420.01
         O          2.010            2.345     20.81    420.01
         O          2.010            2.345     20.81    420.01
         O          2.010            2.345     20.81    420.01
         O          2.010            2.345     20.81    420.01
         O          2.010            2.345     20.81    420.01
         O          2.010            2.345     20.81    420.01
         O          2.010            2.345     20.81    420.01
         O          2.019            2.345     20.81    419.92
         O          2.018            2.345     20.81    419.92
         O          2.031            2.345     20.80    419.79
         O          2.018            2.345     20.81    419.92
         O          2.018            2.345     20.81    419.92
         O          2.033            2.345     20.80    419.77
         O          2.032            2.345     20.80    419.78
         O          2.018            2.345     20.81    419.92
         O          2.018            2.345     20.81    419.92
         O          2.018            2.345     20.81    419.92
         O          2.031            2.345     20.80    419.79
         O          2.018            2.345     20.81    419.92
         O          2.018            2.345     20.81    419.92
         O          2.018            2.345     20.81    419.92
         O          2.018            2.345     20.81    419.92
         O          2.018            2.345     20.81    419.92
         O          2.940            2.345     20.74    418.58
         O          2.940            2.345     20.74    418.58
         O          2.940            2.345     20.74    418.58
         O          2.940            2.345     20.74    418.58

         Molecular C6 ( Ry / a.u.^6 ) =    656875.52


   Crystallographic axes

     site n.     atom                  positions (cryst. coord.)
         1        Ti     tau(   1) = (  0.2898400  0.5718700  0.8617100  )
         2        Ti     tau(   2) = (  0.7101600  0.4281300  0.1382900  )
         3        Ti     tau(   3) = (  0.4281300  0.2898400  0.7179700  )
         4        Ti     tau(   4) = (  0.5718700  0.7101600  0.2820300  )
         5        Ti     tau(   5) = (  0.4281300  0.7101600  0.1382900  )
         6        Ti     tau(   6) = (  0.5718700  0.2898400  0.8617100  )
         7        Ti     tau(   7) = (  0.2898400  0.4281300  0.7179700  )
         8        Ti     tau(   8) = (  0.7101600  0.5718700  0.2820300  )
         9        H      tau(   9) = (  0.5407790  0.3814900  0.5442270  )
        10        H      tau(  10) = (  0.1627370  0.0034480  0.5442270  )
        11        H      tau(  11) = (  0.8372630  0.9965520  0.4557730  )
        12        H      tau(  12) = (  0.3814900  0.8372630  0.8407110  )
        13        H      tau(  13) = (  0.6185100  0.1627370  0.1592890  )
        14        H      tau(  14) = (  0.0034480  0.4592210  0.8407110  )
        15        H      tau(  15) = (  0.9965520  0.5407790  0.1592890  )
        16        H      tau(  16) = (  0.4592210  0.0034480  0.8407110  )
        17        H      tau(  17) = (  0.1627370  0.6185100  0.1592890  )
        18        H      tau(  18) = (  0.6185100  0.4592210  0.4557730  )
        19        H      tau(  19) = (  0.3814900  0.5407790  0.5442270  )
        20        H      tau(  20) = (  0.0034480  0.1627370  0.5442270  )
        21        H      tau(  21) = (  0.4261960  0.5738040  0.0000000  )
        22        H      tau(  22) = (  0.5738040  0.4261960  0.0000000  )
        23        H      tau(  23) = (  0.4261960  0.4261960  0.8523920  )
        24        H      tau(  24) = (  0.5738040  0.5738040  0.1476080  )
        25        H      tau(  25) = (  0.3872650  0.0657260  0.4529910  )
        26        H      tau(  26) = (  0.6127350  0.9342740  0.5470090  )
        27        H      tau(  27) = (  0.0657260  0.6127350  0.6784610  )
        28        H      tau(  28) = (  0.9342740  0.3872650  0.3215390  )
        29        H      tau(  29) = (  0.0657260  0.3872650  0.4529910  )
        30        H      tau(  30) = (  0.3872650  0.9342740  0.3215390  )
        31        H      tau(  31) = (  0.4571728  0.6827839  0.4756814  )
        32        H      tau(  32) = (  0.4333754  0.6375113  0.4039967  )
        33        H      tau(  33) = (  0.5345376  0.9561584  0.1956934  )
        34        H      tau(  34) = (  0.5749142  0.0329715  0.2340536  )
        35        H      tau(  35) = (  0.7916517  0.3626057  0.7708840  )
        36        H      tau(  36) = (  0.7677313  0.3170991  0.7993690  )
        37        H      tau(  37) = (  0.9934455  0.7775618  0.4078085  )
        38        H      tau(  38) = (  0.9956844  0.7818212  0.4718696  )
        39        H      tau(  39) = (  0.9042145  0.6396123  0.5863292  )
        40        H      tau(  40) = (  0.9173326  0.6645683  0.5393985  )
        41        H      tau(  41) = (  0.6335939  0.0540386  0.7371065  )
        42        H      tau(  42) = (  0.6705867  0.1244143  0.7455270  )
        43        C      tau(  43) = (  0.8485530  0.5000000  0.3485530  )
        44        C      tau(  44) = (  0.1514470  0.5000000  0.6514470  )
        45        C      tau(  45) = (  0.5000000  0.1514470  0.6514470  )
        46        C      tau(  46) = (  0.5000000  0.8485530  0.3485530  )
        47        C      tau(  47) = (  0.9267120  0.5000000  0.4267120  )
        48        C      tau(  48) = (  0.0732880  0.5000000  0.5732880  )
        49        C      tau(  49) = (  0.5000000  0.0732880  0.5732880  )
        50        C      tau(  50) = (  0.5000000  0.9267120  0.4267120  )
        51        C      tau(  51) = (  0.9635450  0.5637160  0.5272610  )
        52        C      tau(  52) = (  0.0364550  0.4362840  0.4727390  )
        53        C      tau(  53) = (  0.5637160  0.0364550  0.6001710  )
        54        C      tau(  54) = (  0.4362840  0.9635450  0.3998290  )
        55        C      tau(  55) = (  0.5637160  0.9635450  0.5272610  )
        56        C      tau(  56) = (  0.4362840  0.0364550  0.4727390  )
        57        C      tau(  57) = (  0.9635450  0.4362840  0.3998290  )
        58        C      tau(  58) = (  0.0364550  0.5637160  0.6001710  )
        59        C      tau(  59) = (  0.5434910  0.5434910  0.4509660  )
        60        C      tau(  60) = (  0.4565090  0.4565090  0.5490340  )
        61        C      tau(  61) = (  0.9074750  0.9074750  0.4509660  )
        62        C      tau(  62) = (  0.0925250  0.0925250  0.5490340  )
        63        C      tau(  63) = (  0.5434910  0.0925250  0.0000000  )
        64        C      tau(  64) = (  0.4565090  0.9074750  0.0000000  )
        65        C      tau(  65) = (  0.9074750  0.4565090  0.0000000  )
        66        C      tau(  66) = (  0.0925250  0.5434910  0.0000000  )
        67        C      tau(  67) = (  0.5886690  0.5886690  0.3971880  )
        68        C      tau(  68) = (  0.4113310  0.4113310  0.6028120  )
        69        C      tau(  69) = (  0.8085190  0.8085190  0.3971880  )
        70        C      tau(  70) = (  0.1914810  0.1914810  0.6028120  )
        71        C      tau(  71) = (  0.5886690  0.1914810  0.0000000  )
        72        C      tau(  72) = (  0.4113310  0.8085190  0.0000000  )
        73        C      tau(  73) = (  0.8085190  0.4113310  0.0000000  )
        74        C      tau(  74) = (  0.1914810  0.5886690  0.0000000  )
        75        C      tau(  75) = (  0.4765930  0.5666470  0.4756200  )
        76        C      tau(  76) = (  0.5234070  0.4333530  0.5243800  )
        77        C      tau(  77) = (  0.9089730  0.9990270  0.4756200  )
        78        C      tau(  78) = (  0.0910270  0.0009730  0.5243800  )
        79        C      tau(  79) = (  0.5666470  0.0910270  0.0900540  )
        80        C      tau(  80) = (  0.4333530  0.9089730  0.9099460  )
        81        C      tau(  81) = (  0.9990270  0.5234070  0.0900540  )
        82        C      tau(  82) = (  0.0009730  0.4765930  0.9099460  )
        83        C      tau(  83) = (  0.9990270  0.9089730  0.4756200  )
        84        C      tau(  84) = (  0.0009730  0.0910270  0.5243800  )
        85        C      tau(  85) = (  0.5666470  0.4765930  0.4756200  )
        86        C      tau(  86) = (  0.4333530  0.5234070  0.5243800  )
        87        C      tau(  87) = (  0.9089730  0.4333530  0.9099460  )
        88        C      tau(  88) = (  0.0910270  0.5666470  0.0900540  )
        89        C      tau(  89) = (  0.4765930  0.0009730  0.9099460  )
        90        C      tau(  90) = (  0.5234070  0.9990270  0.0900540  )
        91        N      tau(  91) = (  0.4592210  0.6185100  0.4557730  )
        92        N      tau(  92) = (  0.5407790  0.9965520  0.1592890  )
        93        N      tau(  93) = (  0.8372630  0.3814900  0.8407110  )
        94        N      tau(  94) = (  0.9965520  0.8372630  0.4557730  )
        95        N      tau(  95) = (  0.9342740  0.6127350  0.5470090  )
        96        N      tau(  96) = (  0.6127350  0.0657260  0.6784610  )
        97        O      tau(  97) = (  0.8169030  0.5591160  0.3760190  )
        98        O      tau(  98) = (  0.1830970  0.4408840  0.6239810  )
        99        O      tau(  99) = (  0.5591160  0.1830970  0.7422130  )
       100        O      tau( 100) = (  0.4408840  0.8169030  0.2577870  )
       101        O      tau( 101) = (  0.5591160  0.8169030  0.3760190  )
       102        O      tau( 102) = (  0.4408840  0.1830970  0.6239810  )
       103        O      tau( 103) = (  0.8169030  0.4408840  0.2577870  )
       104        O      tau( 104) = (  0.1830970  0.5591160  0.7422130  )
       105        O      tau( 105) = (  0.6314950  0.4323440  0.1991510  )
       106        O      tau( 106) = (  0.3685050  0.5676560  0.8008490  )
       107        O      tau( 107) = (  0.7668070  0.5676560  0.1991510  )
       108        O      tau( 108) = (  0.2331930  0.4323440  0.8008490  )
       109        O      tau( 109) = (  0.4323440  0.2331930  0.8008490  )
       110        O      tau( 110) = (  0.5676560  0.7668070  0.1991510  )
       111        O      tau( 111) = (  0.5676560  0.3685050  0.8008490  )
       112        O      tau( 112) = (  0.4323440  0.6314950  0.1991510  )
       113        O      tau( 113) = (  0.6483450  0.5649030  0.3754640  )
       114        O      tau( 114) = (  0.3516550  0.4350970  0.6245360  )
       115        O      tau( 115) = (  0.8105610  0.7271190  0.3754640  )
       116        O      tau( 116) = (  0.1894390  0.2728810  0.6245360  )
       117        O      tau( 117) = (  0.5649030  0.1894390  0.9165580  )
       118        O      tau( 118) = (  0.4350970  0.8105610  0.0834420  )
       119        O      tau( 119) = (  0.7271190  0.3516550  0.9165580  )
       120        O      tau( 120) = (  0.2728810  0.6483450  0.0834420  )
       121        O      tau( 121) = (  0.7271190  0.8105610  0.3754640  )
       122        O      tau( 122) = (  0.2728810  0.1894390  0.6245360  )
       123        O      tau( 123) = (  0.5649030  0.6483450  0.3754640  )
       124        O      tau( 124) = (  0.4350970  0.3516550  0.6245360  )
       125        O      tau( 125) = (  0.8105610  0.4350970  0.0834420  )
       126        O      tau( 126) = (  0.1894390  0.5649030  0.9165580  )
       127        O      tau( 127) = (  0.6483450  0.2728810  0.0834420  )
       128        O      tau( 128) = (  0.3516550  0.7271190  0.9165580  )
       129        O      tau( 129) = (  0.6097450  0.6097450  0.2194900  )
       130        O      tau( 130) = (  0.3902550  0.3902550  0.7805100  )
       131        O      tau( 131) = (  0.6097450  0.3902550  0.0000000  )
       132        O      tau( 132) = (  0.3902550  0.6097450  0.0000000  )

     number of k points=     1
                       cart. coord. in units 2pi/alat
        k(    1) = (   0.0000000   0.0000000   0.0000000), wk =   2.0000000

                       cryst. coord.
        k(    1) = (   0.0000000   0.0000000   0.0000000), wk =   2.0000000

     Dense  grid:  1398533 G-vectors     FFT dimensions: ( 160, 160, 160)

     Smooth grid:   494311 G-vectors     FFT dimensions: ( 108, 108, 108)

     Dynamical RAM for                 wfc:       8.11 MB

     Dynamical RAM for     wfc (w. buffer):       8.11 MB

     Dynamical RAM for           str. fact:       3.23 MB

     Dynamical RAM for           local pot:       0.00 MB

     Dynamical RAM for          nlocal pot:      26.62 MB

     Dynamical RAM for                qrad:       6.22 MB

     Dynamical RAM for          rho,v,vnew:       4.87 MB

     Dynamical RAM for               rhoin:       1.62 MB

     Dynamical RAM for            rho*nmix:      10.35 MB

     Dynamical RAM for           G-vectors:       2.54 MB

     Dynamical RAM for          h,s,v(r/c):       1.64 MB

     Dynamical RAM for          <psi|beta>:       4.04 MB

     Dynamical RAM for                 psi:      16.22 MB

     Dynamical RAM for                hpsi:      16.22 MB

     Dynamical RAM for                spsi:      16.22 MB

     Dynamical RAM for      wfcinit/wfcrot:      32.23 MB

     Dynamical RAM for           addusdens:     151.32 MB

     Estimated static dynamical RAM per process >      61.98 MB

     Estimated max dynamical RAM per process >     223.65 MB

     Estimated total dynamical RAM >       7.21 GB

     Check: negative core charge=   -0.000013

     Initial potential from superposition of free atoms

     starting charge     559.9972, renormalised to     568.0000

     negative rho (up, down):  1.862E-02 0.000E+00
     Starting wfcs are  474 randomized atomic wfcs
     Checking if some PAW data can be deallocated... 
       PAW data deallocated on   20 nodes for type:  3
       PAW data deallocated on   24 nodes for type:  5

     total cpu time spent up to now is       11.1 secs

     Self-consistent Calculation

     iteration #  1     ecut=    30.00 Ry     beta= 0.40
     Davidson diagonalization with overlap

---- Real-time Memory Report at c_bands before calling an iterative solver
           182 MiB given to the printing process from OS
             0 MiB allocation reported by mallinfo(arena+hblkhd)
          2051 MiB available memory on the node where the printing process lives
------------------
     ethr =  1.00E-02,  avg # of iterations =  2.0

     negative rho (up, down):  1.042E-02 0.000E+00

     total cpu time spent up to now is       31.7 secs

     total energy              =   -3374.06338929 Ry
     estimated scf accuracy    <     222.80525989 Ry

     iteration #  2     ecut=    30.00 Ry     beta= 0.40
     Davidson diagonalization with overlap

---- Real-time Memory Report at c_bands before calling an iterative solver
           267 MiB given to the printing process from OS
             0 MiB allocation reported by mallinfo(arena+hblkhd)
          5847 MiB available memory on the node where the printing process lives
------------------
     ethr =  1.00E-02,  avg # of iterations = 11.0

     negative rho (up, down):  2.885E-02 0.000E+00

     total cpu time spent up to now is       85.3 secs

     total energy              =   -3298.98631141 Ry
     estimated scf accuracy    <    2515.74050413 Ry

     iteration #  3     ecut=    30.00 Ry     beta= 0.40
     Davidson diagonalization with overlap

---- Real-time Memory Report at c_bands before calling an iterative solver
           272 MiB given to the printing process from OS
             0 MiB allocation reported by mallinfo(arena+hblkhd)
          5894 MiB available memory on the node where the printing process lives
------------------
     ethr =  1.00E-02,  avg # of iterations = 10.0

     negative rho (up, down):  3.651E-02 0.000E+00

     total cpu time spent up to now is      141.4 secs

     total energy              =   -3491.14901630 Ry
     estimated scf accuracy    <     118.28977476 Ry

     iteration #  4     ecut=    30.00 Ry     beta= 0.40
     Davidson diagonalization with overlap

---- Real-time Memory Report at c_bands before calling an iterative solver
           273 MiB given to the printing process from OS
             0 MiB allocation reported by mallinfo(arena+hblkhd)
          5878 MiB available memory on the node where the printing process lives
------------------
     ethr =  1.00E-02,  avg # of iterations =  6.0

     negative rho (up, down):  3.544E-02 0.000E+00

     total cpu time spent up to now is      162.5 secs

     total energy              =   -3501.06923868 Ry
     estimated scf accuracy    <      26.66726117 Ry

     iteration #  5     ecut=    30.00 Ry     beta= 0.40
     Davidson diagonalization with overlap

---- Real-time Memory Report at c_bands before calling an iterative solver
           274 MiB given to the printing process from OS
             0 MiB allocation reported by mallinfo(arena+hblkhd)
          5850 MiB available memory on the node where the printing process lives
------------------
     ethr =  4.69E-03,  avg # of iterations =  2.0

     negative rho (up, down):  2.911E-02 0.000E+00

     total cpu time spent up to now is      178.5 secs

     total energy              =   -3495.23405188 Ry
     estimated scf accuracy    <      15.42443465 Ry

     iteration #  6     ecut=    30.00 Ry     beta= 0.40
     Davidson diagonalization with overlap

---- Real-time Memory Report at c_bands before calling an iterative solver
           275 MiB given to the printing process from OS
             0 MiB allocation reported by mallinfo(arena+hblkhd)
          5863 MiB available memory on the node where the printing process lives
------------------
     ethr =  2.72E-03,  avg # of iterations = 16.0

     negative rho (up, down):  3.165E-02 0.000E+00

     total cpu time spent up to now is      202.8 secs

     total energy              =   -3499.00395175 Ry
     estimated scf accuracy    <      50.24724727 Ry

     iteration #  7     ecut=    30.00 Ry     beta= 0.40
     Davidson diagonalization with overlap

---- Real-time Memory Report at c_bands before calling an iterative solver
           275 MiB given to the printing process from OS
             0 MiB allocation reported by mallinfo(arena+hblkhd)
          5835 MiB available memory on the node where the printing process lives
------------------
     ethr =  2.72E-03,  avg # of iterations =  1.0

     negative rho (up, down):  3.017E-02 0.000E+00

     total cpu time spent up to now is      216.9 secs

     total energy              =   -3491.48918676 Ry
     estimated scf accuracy    <      44.62060457 Ry

     iteration #  8     ecut=    30.00 Ry     beta= 0.40
     Davidson diagonalization with overlap

---- Real-time Memory Report at c_bands before calling an iterative solver
           276 MiB given to the printing process from OS
             0 MiB allocation reported by mallinfo(arena+hblkhd)
          5917 MiB available memory on the node where the printing process lives
------------------
     ethr =  2.72E-03,  avg # of iterations =  6.0

     negative rho (up, down):  2.590E-02 0.000E+00

     total cpu time spent up to now is      240.6 secs

     total energy              =   -3498.15105231 Ry
     estimated scf accuracy    <       1.55642794 Ry

     iteration #  9     ecut=    30.00 Ry     beta= 0.40
     Davidson diagonalization with overlap

---- Real-time Memory Report at c_bands before calling an iterative solver
           277 MiB given to the printing process from OS
             0 MiB allocation reported by mallinfo(arena+hblkhd)
          5885 MiB available memory on the node where the printing process lives
------------------
     ethr =  2.74E-04,  avg # of iterations =  5.0

     negative rho (up, down):  2.244E-02 0.000E+00

     total cpu time spent up to now is      257.1 secs

     total energy              =   -3497.93655521 Ry
     estimated scf accuracy    <       0.84161389 Ry

     iteration # 10     ecut=    30.00 Ry     beta= 0.40
     Davidson diagonalization with overlap

---- Real-time Memory Report at c_bands before calling an iterative solver
           278 MiB given to the printing process from OS
             0 MiB allocation reported by mallinfo(arena+hblkhd)
          5861 MiB available memory on the node where the printing process lives
------------------
     ethr =  1.48E-04,  avg # of iterations =  5.0

     negative rho (up, down):  2.135E-02 0.000E+00

     total cpu time spent up to now is      276.4 secs

     total energy              =   -3498.08198175 Ry
     estimated scf accuracy    <       0.13601900 Ry

     iteration # 11     ecut=    30.00 Ry     beta= 0.40
     Davidson diagonalization with overlap

---- Real-time Memory Report at c_bands before calling an iterative solver
           279 MiB given to the printing process from OS
             0 MiB allocation reported by mallinfo(arena+hblkhd)
          5862 MiB available memory on the node where the printing process lives
------------------
     ethr =  2.39E-05,  avg # of iterations =  4.0

     negative rho (up, down):  2.136E-02 0.000E+00

     total cpu time spent up to now is      294.4 secs

     total energy              =   -3498.08317280 Ry
     estimated scf accuracy    <       0.07290735 Ry

     iteration # 12     ecut=    30.00 Ry     beta= 0.40
     Davidson diagonalization with overlap

---- Real-time Memory Report at c_bands before calling an iterative solver
           279 MiB given to the printing process from OS
             0 MiB allocation reported by mallinfo(arena+hblkhd)
          5862 MiB available memory on the node where the printing process lives
------------------
     ethr =  1.28E-05,  avg # of iterations =  6.0

     negative rho (up, down):  2.135E-02 0.000E+00

     total cpu time spent up to now is      315.2 secs

     total energy              =   -3498.09282686 Ry
     estimated scf accuracy    <       0.05740812 Ry

     iteration # 13     ecut=    30.00 Ry     beta= 0.40
     Davidson diagonalization with overlap

---- Real-time Memory Report at c_bands before calling an iterative solver
           279 MiB given to the printing process from OS
             0 MiB allocation reported by mallinfo(arena+hblkhd)
          5862 MiB available memory on the node where the printing process lives
------------------
     ethr =  1.01E-05,  avg # of iterations =  3.0

     negative rho (up, down):  2.104E-02 0.000E+00

     total cpu time spent up to now is      331.2 secs

     total energy              =   -3498.08605634 Ry
     estimated scf accuracy    <       0.04021727 Ry

     iteration # 14     ecut=    30.00 Ry     beta= 0.40
     Davidson diagonalization with overlap

---- Real-time Memory Report at c_bands before calling an iterative solver
           279 MiB given to the printing process from OS
             0 MiB allocation reported by mallinfo(arena+hblkhd)
          5864 MiB available memory on the node where the printing process lives
------------------
     ethr =  7.08E-06,  avg # of iterations =  5.0

     negative rho (up, down):  2.088E-02 0.000E+00

     total cpu time spent up to now is      348.8 secs

     total energy              =   -3498.08782361 Ry
     estimated scf accuracy    <       0.01569828 Ry

     iteration # 15     ecut=    30.00 Ry     beta= 0.40
     Davidson diagonalization with overlap

---- Real-time Memory Report at c_bands before calling an iterative solver
           279 MiB given to the printing process from OS
             0 MiB allocation reported by mallinfo(arena+hblkhd)
          5866 MiB available memory on the node where the printing process lives
------------------
     ethr =  2.76E-06,  avg # of iterations =  2.0

     negative rho (up, down):  2.077E-02 0.000E+00

     total cpu time spent up to now is      364.6 secs

     total energy              =   -3498.08711527 Ry
     estimated scf accuracy    <       0.01003869 Ry

     iteration # 16     ecut=    30.00 Ry     beta= 0.40
     Davidson diagonalization with overlap

---- Real-time Memory Report at c_bands before calling an iterative solver
           279 MiB given to the printing process from OS
             0 MiB allocation reported by mallinfo(arena+hblkhd)
          5865 MiB available memory on the node where the printing process lives
------------------
     ethr =  1.77E-06,  avg # of iterations =  4.0

     negative rho (up, down):  2.067E-02 0.000E+00

     total cpu time spent up to now is      380.3 secs

     total energy              =   -3498.08450986 Ry
     estimated scf accuracy    <       0.00651451 Ry

     iteration # 17     ecut=    30.00 Ry     beta= 0.40
     Davidson diagonalization with overlap

---- Real-time Memory Report at c_bands before calling an iterative solver
           279 MiB given to the printing process from OS
             0 MiB allocation reported by mallinfo(arena+hblkhd)
          5862 MiB available memory on the node where the printing process lives
------------------
     ethr =  1.15E-06,  avg # of iterations =  6.0

     negative rho (up, down):  2.090E-02 0.000E+00

     total cpu time spent up to now is      402.5 secs

     total energy              =   -3498.08559868 Ry
     estimated scf accuracy    <       0.00322474 Ry

     iteration # 18     ecut=    30.00 Ry     beta= 0.40
     Davidson diagonalization with overlap

---- Real-time Memory Report at c_bands before calling an iterative solver
           279 MiB given to the printing process from OS
             0 MiB allocation reported by mallinfo(arena+hblkhd)
          5864 MiB available memory on the node where the printing process lives
------------------
     ethr =  5.68E-07,  avg # of iterations =  5.0

     negative rho (up, down):  2.085E-02 0.000E+00

     total cpu time spent up to now is      421.1 secs

     total energy              =   -3498.08605069 Ry
     estimated scf accuracy    <       0.00023045 Ry

     iteration # 19     ecut=    30.00 Ry     beta= 0.40
     Davidson diagonalization with overlap

---- Real-time Memory Report at c_bands before calling an iterative solver
           279 MiB given to the printing process from OS
             0 MiB allocation reported by mallinfo(arena+hblkhd)
          5863 MiB available memory on the node where the printing process lives
------------------
     ethr =  4.06E-08,  avg # of iterations =  8.0

     negative rho (up, down):  2.086E-02 0.000E+00

     total cpu time spent up to now is      445.2 secs

     total energy              =   -3498.08611833 Ry
     estimated scf accuracy    <       0.00010141 Ry

     iteration # 20     ecut=    30.00 Ry     beta= 0.40
     Davidson diagonalization with overlap

---- Real-time Memory Report at c_bands before calling an iterative solver
           279 MiB given to the printing process from OS
             0 MiB allocation reported by mallinfo(arena+hblkhd)
          5864 MiB available memory on the node where the printing process lives
------------------
     ethr =  1.79E-08,  avg # of iterations =  4.0

     negative rho (up, down):  2.086E-02 0.000E+00

     total cpu time spent up to now is      462.5 secs

     total energy              =   -3498.08611792 Ry
     estimated scf accuracy    <       0.00003199 Ry

     iteration # 21     ecut=    30.00 Ry     beta= 0.40
     Davidson diagonalization with overlap

---- Real-time Memory Report at c_bands before calling an iterative solver
           279 MiB given to the printing process from OS
             0 MiB allocation reported by mallinfo(arena+hblkhd)
          5865 MiB available memory on the node where the printing process lives
------------------
     ethr =  5.63E-09,  avg # of iterations =  6.0

     negative rho (up, down):  2.085E-02 0.000E+00

     total cpu time spent up to now is      483.2 secs

     total energy              =   -3498.08612272 Ry
     estimated scf accuracy    <       0.00000857 Ry

     iteration # 22     ecut=    30.00 Ry     beta= 0.40
     Davidson diagonalization with overlap

---- Real-time Memory Report at c_bands before calling an iterative solver
           279 MiB given to the printing process from OS
             0 MiB allocation reported by mallinfo(arena+hblkhd)
          5861 MiB available memory on the node where the printing process lives
------------------
     ethr =  1.51E-09,  avg # of iterations =  5.0

     negative rho (up, down):  2.085E-02 0.000E+00

     total cpu time spent up to now is      502.7 secs

     total energy              =   -3498.08612392 Ry
     estimated scf accuracy    <       0.00000289 Ry

     iteration # 23     ecut=    30.00 Ry     beta= 0.40
     Davidson diagonalization with overlap

---- Real-time Memory Report at c_bands before calling an iterative solver
           279 MiB given to the printing process from OS
             0 MiB allocation reported by mallinfo(arena+hblkhd)
          5863 MiB available memory on the node where the printing process lives
------------------
     ethr =  5.09E-10,  avg # of iterations =  4.0

     negative rho (up, down):  2.084E-02 0.000E+00

     total cpu time spent up to now is      520.1 secs

     End of self-consistent calculation

          k = 0.0000 0.0000 0.0000 ( 61809 PWs)   bands (ev):

   -59.5568 -59.5068 -59.4752 -59.4236 -59.4090 -59.3614 -59.3588 -59.3099
   -36.0733 -35.9948 -35.9305 -35.8809 -35.8460 -35.8228 -35.8075 -35.7618
   -35.7415 -35.7185 -35.7088 -35.6912 -35.6764 -35.6506 -35.6418 -35.6269
   -35.6247 -35.6188 -35.6007 -35.5622 -35.5404 -35.5103 -35.4765 -35.4279
   -24.4917 -24.3686 -24.2078 -24.0318 -23.9208 -23.8733 -23.8496 -23.8172
   -23.7671 -23.7608 -23.7374 -23.6974 -22.9709 -22.8769 -22.8185 -22.7512
   -22.5199 -22.2909 -22.2063 -22.0122 -21.8588 -21.7614 -21.5977 -21.5866
   -21.5586 -21.5496 -21.5415 -21.5244 -21.5166 -21.5074 -21.4935 -21.4884
   -21.4434 -21.4363 -19.4425 -19.3441 -19.2833 -19.2216 -19.2155 -19.1177
   -19.0571 -18.9924 -18.4281 -18.1336 -17.9387 -17.8969 -17.8866 -17.8719
   -16.7598 -16.5576 -16.4130 -16.4108 -16.2558 -16.2060 -16.1345 -15.9094
   -15.6720 -15.6609 -15.6484 -15.6048 -14.2184 -13.9267 -13.7448 -13.7246
   -13.6874 -13.6719 -13.6694 -13.4328 -13.2161 -13.1705 -13.1548 -13.0976
   -11.8295 -11.5522 -11.5354 -11.3693 -11.3363 -11.3228 -11.3067 -11.2602
   -11.0576 -11.0245 -10.9843 -10.9684 -10.3968 -10.1115  -9.9873  -9.9286
    -9.8571  -9.8112  -9.7510  -9.6054  -9.4761  -9.4111  -9.3766  -9.3449
    -9.3056  -9.2819  -9.2748  -9.2298  -9.2151  -9.1877  -9.1062  -9.0679
    -9.0507  -9.0223  -8.9379  -8.9166  -8.8999  -8.8818  -8.8301  -8.7975
    -8.7756  -8.7263  -8.6985  -8.6776  -8.6485  -8.6017  -8.5894  -8.5265
    -8.4460  -8.4025  -8.3924  -8.3333  -8.2675  -8.2442  -8.2220  -8.2031
    -8.1436  -8.1127  -8.0873  -7.9184  -7.8079  -7.7187  -7.6806  -7.6712
    -7.6063  -7.5948  -7.5777  -7.4948  -7.4370  -7.4108  -7.2862  -7.2470
    -7.0943  -7.0841  -7.0770  -7.0167  -6.9704  -6.6721  -6.5219  -6.4058
    -6.3925  -6.3786  -6.3235  -6.2985  -6.2469  -6.2334  -6.1359  -6.0438
    -5.9680  -5.9410  -5.9212  -5.8727  -5.8194  -5.7645  -5.7390  -5.7216
    -5.6658  -5.6493  -5.6200  -5.5694  -5.5441  -5.5035  -5.4572  -5.4263
    -5.3960  -5.3749  -5.3427  -5.3301  -5.3106  -5.2765  -5.2562  -5.2369
    -5.2160  -5.1779  -5.0879  -5.0431  -4.9873  -4.9235  -4.8825  -4.7877
    -4.7799  -4.7692  -4.7222  -4.7089  -4.6597  -4.6251  -4.5508  -4.5274
    -4.5001  -4.4603  -4.4109  -4.3969  -4.3334  -4.2991  -4.2819  -4.2601
    -4.2347  -4.1795  -4.1579  -4.1086  -4.0794  -4.0520  -4.0433  -4.0215
    -3.9886  -3.9685  -3.9512  -3.9139  -3.8851  -3.8441  -3.8414  -3.8233
    -3.7061  -3.6148  -3.5773  -3.5630  -3.5389  -3.5150  -3.4979  -3.4038
    -3.3284  -3.2850  -3.2691  -3.2528  -3.2314  -3.2143  -3.1622  -3.1542
    -3.0823  -3.0669  -2.9906  -2.9632  -2.7786  -2.3950  -2.2150  -1.8990
    -1.7111  -1.6704  -1.6586  -1.5135

     occupation numbers 
     1.0000   1.0000   1.0000   1.0000   1.0000   1.0000   1.0000   1.0000
     1.0000   1.0000   1.0000   1.0000   1.0000   1.0000   1.0000   1.0000
     1.0000   1.0000   1.0000   1.0000   1.0000   1.0000   1.0000   1.0000
     1.0000   1.0000   1.0000   1.0000   1.0000   1.0000   1.0000   1.0000
     1.0000   1.0000   1.0000   1.0000   1.0000   1.0000   1.0000   1.0000
     1.0000   1.0000   1.0000   1.0000   1.0000   1.0000   1.0000   1.0000
     1.0000   1.0000   1.0000   1.0000   1.0000   1.0000   1.0000   1.0000
     1.0000   1.0000   1.0000   1.0000   1.0000   1.0000   1.0000   1.0000
     1.0000   1.0000   1.0000   1.0000   1.0000   1.0000   1.0000   1.0000
     1.0000   1.0000   1.0000   1.0000   1.0000   1.0000   1.0000   1.0000
     1.0000   1.0000   1.0000   1.0000   1.0000   1.0000   1.0000   1.0000
     1.0000   1.0000   1.0000   1.0000   1.0000   1.0000   1.0000   1.0000
     1.0000   1.0000   1.0000   1.0000   1.0000   1.0000   1.0000   1.0000
     1.0000   1.0000   1.0000   1.0000   1.0000   1.0000   1.0000   1.0000
     1.0000   1.0000   1.0000   1.0000   1.0000   1.0000   1.0000   1.0000
     1.0000   1.0000   1.0000   1.0000   1.0000   1.0000   1.0000   1.0000
     1.0000   1.0000   1.0000   1.0000   1.0000   1.0000   1.0000   1.0000
     1.0000   1.0000   1.0000   1.0000   1.0000   1.0000   1.0000   1.0000
     1.0000   1.0000   1.0000   1.0000   1.0000   1.0000   1.0000   1.0000
     1.0000   1.0000   1.0000   1.0000   1.0000   1.0000   1.0000   1.0000
     1.0000   1.0000   1.0000   1.0000   1.0000   1.0000   1.0000   1.0000
     1.0000   1.0000   1.0000   1.0000   1.0000   1.0000   1.0000   1.0000
     1.0000   1.0000   1.0000   1.0000   1.0000   1.0000   1.0000   1.0000
     1.0000   1.0000   1.0000   1.0000   1.0000   1.0000   1.0000   1.0000
     1.0000   1.0000   1.0000   1.0000   1.0000   1.0000   1.0000   1.0000
     1.0000   1.0000   1.0000   1.0000   1.0000   1.0000   1.0000   1.0000
     1.0000   1.0000   1.0000   1.0000   1.0000   1.0000   1.0000   1.0000
     1.0000   1.0000   1.0000   1.0000   1.0000   1.0000   1.0000   1.0000
     1.0000   1.0000   1.0000   1.0000   1.0000   1.0000   1.0000   1.0000
     1.0000   1.0000   1.0000   1.0000   1.0000   1.0000   1.0000   1.0000
     1.0000   1.0000   1.0000   1.0000   1.0000   1.0000   1.0000   1.0000
     1.0000   1.0000   1.0000   1.0000   1.0000   1.0000   1.0000   1.0000
     1.0000   1.0000   1.0000   1.0000   1.0000   1.0000   1.0000   1.0000
     1.0000   1.0000   1.0000   1.0000   1.0000   1.0000   1.0000   1.0000
     1.0000   1.0000   1.0000   1.0000   1.0000   1.0000   1.0000   1.0000
     1.0000   1.0000   1.0000   1.0000

     highest occupied level (ev):    -1.5135

!    total energy              =   -3498.08612352 Ry
     estimated scf accuracy    <       0.00000085 Ry

     The total energy is the sum of the following terms:
     one-electron contribution =   -8476.84713627 Ry
     hartree contribution      =    4353.05302545 Ry
     xc contribution           =    -691.90054013 Ry
     ewald contribution        =    1956.83698152 Ry
     DFT-D3 Dispersion         =      -0.33333177 Ry
     one-center paw contrib.   =    -638.89512233 Ry
      -> PAW hartree energy AE =       0.00000000 Ry
      -> PAW hartree energy PS =       0.00000000 Ry
      -> PAW xc energy AE      =       0.00000000 Ry
      -> PAW xc energy PS      =       0.00000000 Ry
      -> total E_H with PAW    =    4353.05302545 Ry
      -> total E_XC with PAW   =    -691.90054013 Ry

     convergence has been achieved in  23 iterations

     Writing all to output data dir ./tmp/MIL125_NH2_convtest.save/ :
     XML data file, charge density, pseudopotentials, collected wavefunctions

     init_run     :      9.55s CPU      9.93s WALL (       1 calls)
     electrons    :    501.01s CPU    509.15s WALL (       1 calls)

     Called by init_run:
     wfcinit      :      8.00s CPU      8.07s WALL (       1 calls)
     wfcinit:atom :      0.01s CPU      0.01s WALL (       1 calls)
     wfcinit:wfcr :      7.92s CPU      7.97s WALL (       1 calls)
     potinit      :      0.26s CPU      0.31s WALL (       1 calls)
     hinit0       :      0.12s CPU      0.14s WALL (       1 calls)

     Called by electrons:
     c_bands      :    427.51s CPU    430.18s WALL (      23 calls)
     sum_band     :     49.79s CPU     52.33s WALL (      23 calls)
     v_of_rho     :      2.46s CPU      2.74s WALL (      24 calls)
     v_h          :      0.16s CPU      0.18s WALL (      24 calls)
     v_xc         :      2.30s CPU      2.57s WALL (      24 calls)
     newd         :     17.51s CPU     20.25s WALL (      24 calls)
     PAW_pot      :      3.36s CPU      3.38s WALL (      24 calls)
     mix_rho      :      0.41s CPU      0.45s WALL (      23 calls)
     energy_dftd3 :      0.66s CPU      0.67s WALL (       1 calls)

     Called by c_bands:
     init_us_2    :      0.87s CPU      0.90s WALL (      47 calls)
     cegterg      :    426.44s CPU    429.06s WALL (      23 calls)

     Called by sum_band:
     sum_band:wei :      0.00s CPU      0.00s WALL (      23 calls)
     sum_band:loo :     33.11s CPU     33.28s WALL (      23 calls)
     sum_band:buf :      0.00s CPU      0.00s WALL (      23 calls)
     sum_band:ini :      0.44s CPU      0.44s WALL (      23 calls)
     sum_band:cal :     27.31s CPU     27.45s WALL (      23 calls)
     sum_band:bec :      0.14s CPU      0.14s WALL (      23 calls)
     addusdens    :     16.02s CPU     18.35s WALL (      23 calls)
                                        0.00s GPU  (      23 calls)
     addusd:skk   :      0.44s CPU      0.45s WALL (     115 calls)
                                        0.00s GPU  (     115 calls)

     Called by *egterg:
     cdiaghg      :     25.68s CPU     26.10s WALL (     149 calls)
     cegterg:over :     50.24s CPU     50.39s WALL (     126 calls)
     cegterg:upda :     20.40s CPU     20.61s WALL (     126 calls)
     cegterg:last :     67.69s CPU     68.05s WALL (      58 calls)
     cdiaghg:chol :      1.22s CPU      1.23s WALL (     149 calls)
     cdiaghg:inve :      0.49s CPU      0.49s WALL (     149 calls)
     cdiaghg:para :      7.09s CPU      7.22s WALL (     298 calls)
     h_psi        :    184.68s CPU    185.72s WALL (     150 calls)
     s_psi        :     74.31s CPU     74.50s WALL (     150 calls)
     g_psi        :      0.09s CPU      0.10s WALL (     126 calls)

     Called by h_psi:
     h_psi:calbec :     82.12s CPU     82.57s WALL (     150 calls)
     vloc_psi     :     27.88s CPU     28.09s WALL (     150 calls)
     add_vuspsi   :     74.54s CPU     74.76s WALL (     150 calls)

     General routines
     calbec       :    109.43s CPU    110.02s WALL (     173 calls)
     fft          :      1.83s CPU      2.07s WALL (     310 calls)
     ffts         :      0.06s CPU      0.06s WALL (      47 calls)
     fftw         :     27.60s CPU     27.80s WALL (   45780 calls)
     interpolate  :      0.16s CPU      0.17s WALL (      24 calls)

     Parallel routines

     PAW routines
     PAW_pot      :      3.36s CPU      3.38s WALL (      24 calls)

     PWSCF        :   8m30.92s CPU   8m40.83s WALL


   This run was terminated on:   1:58:53  10Apr2025            

=------------------------------------------------------------------------------=
   JOB DONE.
=------------------------------------------------------------------------------=
