
                                 *****************
                                 * O   R   C   A *
                                 *****************

                                            #,                                       
                                            ###                                      
                                            ####                                     
                                            #####                                    
                                            ######                                   
                                           ########,                                 
                                     ,,################,,,,,                         
                               ,,#################################,,                 
                          ,,##########################################,,             
                       ,#########################################, ''#####,          
                    ,#############################################,,   '####,        
                  ,##################################################,,,,####,       
                ,###########''''           ''''###############################       
              ,#####''   ,,,,##########,,,,          '''####'''          '####       
            ,##' ,,,,###########################,,,                        '##       
           ' ,,###''''                  '''############,,,                           
         ,,##''                                '''############,,,,        ,,,,,,###''
      ,#''                                            '''#######################'''  
     '                                                          ''''####''''         
             ,#######,   #######,   ,#######,      ##                                
            ,#'     '#,  ##    ##  ,#'     '#,    #''#        ,####,   ,####,        
            ##       ##  ##   ,#'  ##            #'  '#       #'       #'  '#        
            ##       ##  #######   ##           ,######,      #####,   #    #        
            '#,     ,#'  ##    ##  '#,     ,#' ,#      #,     #,   #   #,  ,#        
             '#######'   ##     ##  '#######'  #'      '#     '####' # '####'        



                #########################################################
                #                        -***-                          #
                #          Department of theory and spectroscopy        #
                #                                                       #
                #                      Frank Neese                      #
                #                                                       #
                #     Directorship, Architecture, Infrastructure        #
                #                    SHARK, DRIVERS                     #
                #        Core code/Algorithms in most modules           #
                #                                                       #
                #        Max Planck Institute fuer Kohlenforschung      #
                #                Kaiser Wilhelm Platz 1                 #
                #                 D-45470 Muelheim/Ruhr                 #
                #                      Germany                          #
                #                                                       #
                #                  All rights reserved                  #
                #                        -***-                          #
                #########################################################


                         Program Version 6.0.1  -  RELEASE   -


 With contributions from (in alphabetic order):
[Max-Planck-Institut fuer Kohlenforschung]                               
  Daniel Aravena         : Magnetic Suceptibility                        
  Michael Atanasov       : Ab Initio Ligand Field Theory (pilot matlab implementation)
  Alexander A. Auer      : GIAO ZORA, VPT2 properties, NMR spectrum      
  Ute Becker             : All parallelization in ORCA, NUMFREQ, NUMCALC 
  Giovanni Bistoni       : ED, misc. LED, open-shell LED, HFLD           
  Martin Brehm           : Molecular dynamics                            
  Dmytro Bykov           : pre 5.0 version of the SCF Hessian            
  Marcos Casanova-Páez   : Triplet and SCS-CIS(D). UHF-(DLPNO)-IP/EA/STEOM-CCSD. UHF-CVS-IP/STEOM-CCSD   
  Vijay G. Chilkuri      : MRCI spin determinant printing, contributions to CSF-ICE 
  Pauline Colinet        : FMM embedding                                 
  Dipayan Datta          : RHF DLPNO-CCSD density                        
  Achintya Kumar Dutta   : EOM-CC, STEOM-CC                              
  Nicolas Foglia         : Exact transition moments, OPA infrastructure, MCD improvements    
  Dmitry Ganyushin       : Spin-Orbit,Spin-Spin,Magnetic field MRCI      
  Miquel Garcia-Rates    : C-PCM and meta-GGA Hessian, CCSD/C-PCM, Gaussian charge scheme 
  Tiago L. C. Gouveia    : GS-ROHF, GS-ROCIS                             
  Yang Guo               : DLPNO-NEVPT2, F12-NEVPT2, CIM, IAO-localization        
  Andreas Hansen         : Spin unrestricted coupled pair/coupled cluster methods 
  Ingolf Harden          : AUTO-CI MPn and infrastructure                
  Benjamin Helmich-Paris : MC-RPA, TRAH-(SCF,CASSCF), AVAS, COSX integrals, SCF dyn. polar. 
  Lee Huntington         : MR-EOM, pCC                                   
  Robert Izsak           : Overlap fitted RIJCOSX, COSX-SCS-MP3, EOM     
  Riya Kayal             : Wick's Theorem for AUTO-CI, AUTO-CI UHF-CCSDT 
  Emily Kempfer          : AUTO-CI, RHF CISDT and CCSDT                  
  Christian Kollmar      : KDIIS, OOCD, Brueckner-CCSD(T), CCSD density, CASPT2, CASPT2-K, improved NEVPT2 
  Axel Koslowski         : Symmetry handling                             
  Simone Kossmann        : meta-GGA functionals, TD-DFT gradient, OOMP2, (MP2 Hessian; deprecated post 5.0) 
  Lucas Lang             : DCDCAS                                        
  Marvin Lechner         : AUTO-CI (C++ implementation), FIC-MRCC        
  Spencer Leger          : CASSCF response                               
  Dagmar Lenk            : GEPOL surface, SMD, ORCA-2-JSON               
  Dimitrios Liakos       : Extrapolation schemes; Compound Job, initial MDCI parallelization 
  Dimitrios Manganas     : Further ROCIS development; embedding schemes. LFT, Crystal Embedding 
  Dimitrios Pantazis     : SARC Basis sets                               
  Anastasios Papadopoulos: AUTO-CI, single reference methods and gradients 
  Taras Petrenko         : pre 6.0 DFT Hessian and TD-DFT gradient, (ASA, deprecated), ECA, 1-Electron XAS/XES, NRVS 
  Peter Pinski           : DLPNO-MP2, DLPNO-MP2 Gradient                 
  Christoph Reimann      : Effective Core Potentials                     
  Marius Retegan         : Local ZFS, SOC                                
  Christoph Riplinger    : Optimizer, TS searches, QM/MM, DLPNO-CCSD(T), (RO)-DLPNO pert. Triples 
  Michael Roemelt        : Original ROCIS implementation                 
  Masaaki Saitow         : Open-shell DLPNO-CCSD energy and density      
  Barbara Sandhoefer     : DKH picture change effects                    
  Kantharuban Sivalingam : CASSCF convergence/infrastructure, NEVPT2 and variants, FIC-MRCI 
  Bernardo de Souza      : ESD, SOC TD-DFT                               
  Georgi L. Stoychev     : AutoAux, RI-MP2 NMR, DLPNO-MP2 response, X2C  
  Van Anh Tran           : RI-MP2 g-tensors                              
  Willem Van den Heuvel  : Paramagnetic NMR                              
  Zikuan Wang            : NOTCH, Electric field optimization            
  Frank Wennmohs         : Technical directorship and infrastructure     
  Hang Xu                : AUTO-CI-Response properties                   
                                                                         
[FACCTs GmbH]                                                            
  Markus Bursch, Miquel Garcia-Rates, Christoph Riplinger, Bernardo de Souza, Georgi L. Stoychev 
                                                                 
  APM, Basis sets (HGBS, AHGBS, def-TZVP (Ac-Lr), def2-XVPD (La-Lu)), CI-OPT, improved COSX, DLPNO-Multilevel,           
  DOCKER, DRACO, updates on ESD, GOAT, IRC, LR-CPCM, MBIS, meta-GGA TD-DFT gradient, ML-optimized integration grids, 
  MM, NACMEs, nearIR, NEB, NEB-TS, NL-DFT gradient (VV10), 2- and 3-layer-ONIOM, interface openCOSMO-RS, QMMM,   
  Crystal-QMMM, SF, symmetry and pop. for TD-DFT, r2SCAN hybrids, SOLVATOR                                   
                                                                         
[Other institutions]                                                     
  V. Asgeirsson          : NEB                                           
  Christoph Bannwarth    : sTDA-DFT, sTD-DFT, PBEh-3c, B97-3c, D3        
  Sebastian Ehlert       : rSCAN, r2SCAN, r2SCAN-3c, D4, dhf basis sets  
  Marvin Friede          : D4 for Fr, Ra, Ac-Lr                          
  Lars Goerigk           : TD-DFT with DH, B97 family of functionals     
  Stefan Grimme          : VdW corrections, initial TS optimization, DFT functionals, gCP, sTDA/sTD-DF 
  Waldemar Hujo          : DFT-NL                                        
  H. Jonsson             : NEB                                           
  Holger Kruse           : gCP                                           
  Marcel Mueller         : wB97X-3c, vDZP basis set                      
  Hagen Neugebauer       : wr2SCAN                                       
  Tobias Risthaus        : range-separated hybrid DFT                    
  Lukas Wittmann         : regularized MP2, r2SCAN double-hybrids, wr2SCAN        
                                                                         
We gratefully acknowledge several colleagues who have allowed us to      
interface, adapt or use parts of their codes:                            
  Ed Valeev, F. Pavosevic, A. Kumar             : LibInt (2-el integral package), F12 methods 
  Garnet Chan, S. Sharma, J. Yang, R. Olivares  : DMRG                   
  Ulf Ekstrom                                   : XCFun DFT Library      
  Mihaly Kallay                                 : mrcc  (arbitrary order and MRCC methods)
  Frank Weinhold                                : gennbo (NPA and NBO analysis)           
  Simon Mueller                                 : openCOSMO-RS                            
  Christopher J. Cramer and Donald G. Truhlar   : smd solvation model                     
  S Lehtola, MJT Oliveira, MAL Marques          : LibXC Library                           
  Liviu Ungur et al                             : ANISO software                          


 Your calculation uses the libint2 library for the computation of 2-el integrals
 For citations please refer to: http://libint.valeyev.net

 Your ORCA version has been built with support for libXC version: 6.2.2
 For citations please refer to: https://libxc.gitlab.io

 This ORCA versions uses:
   CBLAS   interface :  Fast vector & matrix operations
   LAPACKE interface :  Fast linear algebra routines
   SCALAPACK package :  Parallel linear algebra routines
   Shared memory     :  Shared parallel matrices
   BLAS/LAPACK       :  OpenBLAS 0.3.27  USE64BITINT DYNAMIC_ARCH NO_AFFINITY SkylakeX SINGLE_THREADED
        Core in use  :  SkylakeX
   Copyright (c) 2011-2014, The OpenBLAS Project


NOTE: MaxCore=5000 MB was set to SCF,MP2,MDCI,CIPSI,MRCI and CIS
      => If you want to overwrite this, your respective input block should be placed after the MaxCore statement
Your calculation utilizes the atom-pairwise dispersion correction
based on EEQ partial charges (D4)


Warning: RI is on but no J-basis has been assigned. Assigning Def2/J (nothing to worry about!)
================================================================================

----- Orbital basis set information -----
Your calculation utilizes the basis: def2-TZVP
   F. Weigend and R. Ahlrichs, Phys. Chem. Chem. Phys. 7, 3297 (2005).

----- AuxJ basis set information -----
Your calculation utilizes the auxiliary basis: def2/J
   F. Weigend, Phys. Chem. Chem. Phys. 8, 1057 (2006).

================================================================================
                                        WARNINGS
                       Please study these warnings very carefully!
================================================================================


WARNING: Geometry Optimization
  ===> : Switching off AutoStart
         For restart on a previous wavefunction, please use MOREAD

================================================================================
                                       INPUT FILE
================================================================================
NAME = complex.inp
|  1> ! Opt B3LYP D4 def2-TZVP TightSCF TightOpt
|  2> 
|  3> %maxcore 5000
|  4> 
|  5> %pal
|  6> nprocs 25
|  7> end
|  8> 
|  9> * xyz 0 1
| 10> N          -8.72962492386322     -8.99189742454306     -0.65103023084645
| 11>   N         -10.68271854955647     -9.90129514292093     -0.40015009379899
| 12>   C          -7.38105224827415     -8.69672897991748     -1.17365182442228
| 13>   C          -6.28551825238905     -9.37589678433659     -0.35782293215028
| 14>   C          -6.35402692766813    -10.90247669306162     -0.37078348793527
| 15>   C          -9.60127882137748     -9.84809179392797     -1.17915699476464
| 16>   C          -9.26765797250418     -8.48380500094038      0.50991947471240
| 17>   C         -10.49214028714547     -9.04976890242411      0.66660368095486
| 18>   C          -5.20332871523423    -11.54578568142509      0.39996423241172
| 19>   C         -11.87471472818577    -10.71649325984362     -0.63977948694316
| 20>   H          -7.36598944616136     -9.03318424388360     -2.21031247893958
| 21>   H          -7.26998182203274     -7.61265507057422     -1.17235158088435
| 22>   H          -6.31303628135377     -9.00570000500716      0.67164630340309
| 23>   H          -5.33185696170346     -9.04159590220509     -0.77489609800332
| 24>   H          -7.30422704412666    -11.23470816360331      0.06203235076380
| 25>   H          -6.34276373242504    -11.25481273233503     -1.40827730655867
| 26>   H          -9.45675664528962    -10.40686209868532     -2.08734928390578
| 27>   H          -8.74581575998022     -7.76629715895596      1.11749837158160
| 28>   H         -11.23534517909406     -8.91520166133166      1.43236797429841
| 29>   H          -5.20660027256499    -11.23363560058039      1.44656891641087
| 30>   H          -4.23836618231239    -11.26789775444141     -0.02818668727323
| 31>   H          -5.27729456115120    -12.63357433880526      0.37679387391664
| 32>   H         -11.72770909738754    -11.30048382681518     -1.54437053894013
| 33>   H         -12.03076970817053    -11.38731606060968      0.20287056105203
| 34>   H         -12.74075037797829    -10.06885641137881     -0.76335265721417
| 35>   O          11.65421952293348      4.73824564789918      2.11255096342294
| 36>   F           9.47709654405396      6.89062775603043      1.83479234323536
| 37>   O           8.71734407662528      4.00736512191551      1.50791395453468
| 38>   F          13.95333481251166      6.04248825762842      0.71990121393812
| 39>   F           7.43461772699286      6.71235240048202      1.12742252224906
| 40>   S          11.79848524650579      4.52066002396708      0.69696845866959
| 41>   C           8.72588550297825      6.52987358494279      0.79026487883119
| 42>   F          12.12097745892204      7.14932285396568      0.36604748127149
| 43>   C          12.76190966434603      6.00353597323736      0.09743815549831
| 44>   O          12.58693206275535      3.40533433919015      0.24150642534012
| 45>   S           9.00348793135155      4.74448400800656      0.30517188185601
| 46>   N          10.49835939409613      4.69588649148868     -0.18844391243995
| 47>   F           9.00185729201194      7.35935298537163     -0.22867037552034
| 48>   F          12.99042398814507      5.95469735674320     -1.22194130890969
| 49>   O           8.13751458610080      4.58753866918480     -0.83355651030202
| 50> *
| 51> 
| 52>                          ****END OF INPUT****
================================================================================

                       *****************************
                       * Geometry Optimization Run *
                       *****************************

Geometry optimization settings:
Update method            Update   .... BFGS
Choice of coordinates    CoordSys .... (2022) Redundant Internals
Initial Hessian          InHess   .... Almloef's Model
Max. no of cycles        MaxIter  .... 120

Convergence Tolerances:
Energy Change            TolE     ....  1.0000e-06 Eh
Max. Gradient            TolMAXG  ....  1.0000e-04 Eh/bohr
RMS Gradient             TolRMSG  ....  3.0000e-05 Eh/bohr
Max. Displacement        TolMAXD  ....  1.0000e-03 bohr
RMS Displacement         TolRMSD  ....  6.0000e-04 bohr
Strict Convergence                .... False

------------------------------------------------------------------------------
                        ORCA OPTIMIZATION COORDINATE SETUP
------------------------------------------------------------------------------

The optimization will be done in redundant internal coordinates (2022)
Making redundant internal coordinates   ...  (2022 redundants) done
Evaluating the initial hessian          ...  (Almloef) done
Evaluating the coordinates              ...  done
Calculating the B-matrix                .... done
Calculating the G-matrix                .... done
Diagonalizing the G-matrix              .... done
The first mode is                       .... 1397
The number of degrees of freedom        ....  114

    -----------------------------------------------------------------
                    Redundant Internal Coordinates


    -----------------------------------------------------------------
         Definition                    Initial Value    Approx d2E/dq
    -----------------------------------------------------------------
      1. B(C   2,N   0)                  1.4761         0.407840   
      2. B(C   3,C   2)                  1.5255         0.379852   
      3. B(C   4,C   3)                  1.5282         0.376093   
      4. B(C   5,N   0)                  1.3311         0.694837   
      5. B(C   5,N   1)                  1.3339         0.687759   
      6. B(C   6,N   0)                  1.3768         0.587509   
      7. B(C   7,C   6)                  1.3580         0.702681   
      8. B(C   7,N   1)                  1.3782         0.584431   
      9. B(C   8,C   4)                  1.5271         0.377589   
     10. B(C   9,N   1)                  1.4638         0.426648   
     11. B(H  10,C   2)                  1.0900         0.360103   
     12. B(H  10,N   0)                  2.0719         0.008751   
     13. B(H  11,N   0)                  2.0748         0.008658   
     14. B(H  11,C   2)                  1.0897         0.360431   
     15. B(H  12,C   3)                  1.0944         0.354387   
     16. B(H  13,C   3)                  1.0932         0.355837   
     17. B(H  14,C   4)                  1.0957         0.352621   
     18. B(H  15,C   4)                  1.0957         0.352577   
     19. B(H  16,N   1)                  2.1460         0.006665   
     20. B(H  16,C   5)                  1.0761         0.379009   
     21. B(H  17,C   6)                  1.0753         0.380069   
     22. B(H  17,N   0)                  2.1518         0.006525   
     23. B(H  18,N   1)                  2.1531         0.006493   
     24. B(H  18,C   7)                  1.0756         0.379700   
     25. B(H  19,C   8)                  1.0922         0.357244   
     26. B(H  20,C   8)                  1.0916         0.357931   
     27. B(H  21,C   8)                  1.0905         0.359378   
     28. B(H  22,C   9)                  1.0867         0.364477   
     29. B(H  23,C   9)                  1.0883         0.362345   
     30. B(H  24,C   9)                  1.0884         0.362157   
     31. B(O  25,C   8)                 23.5006         0.000000   
     32. B(O  25,C   4)                 23.9812         0.000000   
     33. B(O  25,H  13)                 22.0624         0.000000   
     34. B(O  25,H  21)                 24.3201         0.000000   
     35. B(O  25,C   3)                 22.9597         0.000000   
     36. B(O  25,H  17)                 23.9482         0.000000   
     37. B(O  25,H  20)                 22.6573         0.000000   
     38. B(O  25,C   2)                 23.5295         0.000000   
     39. B(O  25,H  19)                 23.2343         0.000000   
     40. B(O  25,C   6)                 24.8015         0.000000   
     41. B(O  25,N   0)                 24.7317         0.000000   
     42. B(O  25,H  14)                 24.8749         0.000000   
     43. B(O  25,H  15)                 24.3324         0.000000   
     44. B(O  25,H  11)                 22.8355         0.000000   
     45. B(O  25,H  12)                 22.6670         0.000000   
     46. B(O  25,H  13)                 22.0624         0.000000   
     47. B(O  25,H  10)                 23.8769         0.000000   
     48. B(F  26,C   4)                 23.9183         0.000000   
     49. B(F  26,H  10)                 23.5291         0.000000   
     50. B(F  26,C   6)                 24.2795         0.000000   
     51. B(F  26,H  14)                 24.7646         0.000000   
     52. B(F  26,H  15)                 24.2908         0.000000   
     53. B(F  26,N   0)                 24.2882         0.000000   
     54. B(F  26,C   8)                 23.6109         0.000000   
     55. B(F  26,H  13)                 21.9078         0.000000   
     56. B(F  26,H  17)                 23.3969         0.000000   
     57. B(F  26,H  11)                 22.3574         0.000000   
     58. B(F  26,C   3)                 22.7567         0.000000   
     59. B(F  26,C   2)                 23.1563         0.000000   
     60. B(F  26,H  20)                 22.8324         0.000000   
     61. B(F  26,H  21)                 24.5156         0.000000   
     62. B(F  26,H  19)                 23.3292         0.000000   
     63. B(F  26,H  12)                 22.4360         0.000000   
     64. B(O  27,C   6)                 21.9200         0.000000   
     65. B(O  27,H  19)                 20.6438         0.000000   
     66. B(O  27,H  11)                 19.9450         0.000000   
     67. B(O  27,H  15)                 21.6390         0.000000   
     68. B(O  27,H  18)                 23.7720         0.000000   
     69. B(O  27,C   3)                 20.1911         0.000000   
     70. B(O  27,H  16)                 23.4733         0.000000   
     71. B(O  27,H  20)                 20.0884         0.000000   
     72. B(O  27,H  21)                 21.7727         0.000000   
     73. B(O  27,H  12)                 19.8985         0.000000   
     74. B(O  27,H  17)                 21.0650         0.000000   
     75. B(O  27,N   0)                 21.8641         0.000000   
     76. B(O  27,C   8)                 20.9025         0.000000   
     77. B(O  27,H  13)                 19.3098         0.000000   
     78. B(O  27,C   7)                 23.2422         0.000000   
     79. B(O  27,C   5)                 23.1250         0.000000   
     80. B(O  27,C   4)                 21.2833         0.000000   
     81. B(O  27,H  14)                 22.1608         0.000000   
     82. B(O  27,N   1)                 23.9469         0.000000   
     83. B(O  27,H  10)                 21.0370         0.000000   
     84. B(O  27,C   2)                 20.6820         0.000000   
     85. B(F  28,H  13)                 24.5292         0.000000   
     86. B(F  29,H  16)                 24.2636         0.000000   
     87. B(F  29,H  18)                 24.3491         0.000000   
     88. B(F  29,H  12)                 20.8869         0.000000   
     89. B(F  29,H  19)                 21.9536         0.000000   
     90. B(F  29,C   7)                 23.8752         0.000000   
     91. B(F  29,C   5)                 23.8703         0.000000   
     92. B(F  29,H  10)                 21.8660         0.000000   
     93. B(F  29,C   6)                 22.5892         0.000000   
     94. B(F  29,H  13)                 20.3664         0.000000   
     95. B(F  29,H  11)                 20.6572         0.000000   
     96. B(F  29,H  17)                 21.7126         0.000000   
     97. B(F  29,H  14)                 23.2479         0.000000   
     98. B(F  29,C   4)                 22.4199         0.000000   
     99. B(F  29,C   2)                 21.4997         0.000000   
    100. B(F  29,H  21)                 23.1608         0.000000   
    101. B(F  29,H  20)                 21.4682         0.000000   
    102. B(F  29,N   1)                 24.6289         0.000000   
    103. B(F  29,C   3)                 21.1962         0.000000   
    104. B(F  29,H  15)                 22.7830         0.000000   
    105. B(F  29,C   8)                 22.2173         0.000000   
    106. B(F  29,N   0)                 22.6068         0.000000   
    107. B(S  30,H  14)                 24.7699         0.000000   
    108. B(S  30,C   6)                 24.7575         0.000000   
    109. B(S  30,N   0)                 24.6132         0.000000   
    110. B(S  30,H  20)                 22.5163         0.000000   
    111. B(S  30,H  21)                 24.2065         0.000000   
    112. B(S  30,H  15)                 24.1330         0.000000   
    113. B(S  30,H  17)                 23.9419         0.000000   
    114. B(S  30,H  13)                 21.8986         0.000000   
    115. B(S  30,H  10)                 23.6524         0.000000   
    116. B(S  30,H  12)                 22.6051         0.000000   
    117. B(S  30,C   8)                 23.3940         0.000000   
    118. B(S  30,C   2)                 23.3678         0.000000   
    119. B(S  30,H  19)                 23.1934         0.000000   
    120. B(S  30,C   4)                 23.8438         0.000000   
    121. B(S  30,C   3)                 22.8311         0.000000   
    122. B(S  30,O  25)                  1.4395         1.258176   
    123. B(S  30,H  11)                 22.6786         0.000000   
    124. B(C  31,F  26)                  1.3362         0.633520   
    125. B(C  31,H  10)                 22.5867         0.000000   
    126. B(C  31,F  29)                  1.3470         0.608986   
    127. B(C  31,C   2)                 22.2517         0.000000   
    128. B(C  31,H  20)                 22.0341         0.000000   
    129. B(C  31,H  14)                 23.9390         0.000000   
    130. B(C  31,C   3)                 21.9010         0.000000   
    131. B(C  31,H  19)                 22.5851         0.000000   
    132. B(C  31,C   7)                 24.7401         0.000000   
    133. B(C  31,C   6)                 23.4362         0.000000   
    134. B(C  31,H  15)                 23.4135         0.000000   
    135. B(C  31,N   0)                 23.4029         0.000000   
    136. B(C  31,C   5)                 24.6577         0.000000   
    137. B(C  31,H  12)                 21.6226         0.000000   
    138. B(C  31,C   4)                 23.0790         0.000000   
    139. B(C  31,H  11)                 21.4413         0.000000   
    140. B(C  31,C   8)                 22.8233         0.000000   
    141. B(C  31,H  13)                 21.0366         0.000000   
    142. B(C  31,H  17)                 22.5776         0.000000   
    143. B(C  31,H  21)                 23.7381         0.000000   
    144. B(F  32,C   3)                 24.7468         0.000000   
    145. B(F  32,H  12)                 24.5131         0.000000   
    146. B(F  32,H  13)                 23.8338         0.000000   
    147. B(F  32,H  11)                 24.4191         0.000000   
    148. B(F  32,H  20)                 24.6369         0.000000   
    149. B(C  33,F  32)                  1.3401         0.624649   
    150. B(C  33,S  30)                  1.8672         0.291822   
    151. B(C  33,F  28)                  1.3448         0.613889   
    152. B(C  33,C   3)                 24.4855         0.000000   
    153. B(C  33,H  12)                 24.2788         0.000000   
    154. B(C  33,H  20)                 24.2348         0.000000   
    155. B(C  33,H  11)                 24.2547         0.000000   
    156. B(C  33,H  13)                 23.5479         0.000000   
    157. B(O  34,C   6)                 24.8807         0.000000   
    158. B(O  34,N   0)                 24.6756         0.000000   
    159. B(O  34,H  20)                 22.3264         0.000000   
    160. B(O  34,H  17)                 24.0969         0.000000   
    161. B(O  34,H  21)                 24.0082         0.000000   
    162. B(O  34,H  15)                 23.9995         0.000000   
    163. B(O  34,H  14)                 24.6986         0.000000   
    164. B(O  34,C   4)                 23.7455         0.000000   
    165. B(O  34,H  13)                 21.8413         0.000000   
    166. B(O  34,H  10)                 23.6400         0.000000   
    167. B(O  34,C   2)                 23.3919         0.000000   
    168. B(O  34,C   8)                 23.2391         0.000000   
    169. B(O  34,H  19)                 23.0730         0.000000   
    170. B(O  34,C   3)                 22.8011         0.000000   
    171. B(O  34,H  11)                 22.7528         0.000000   
    172. B(O  34,S  30)                  1.4398         1.256547   
    173. B(O  34,H  12)                 22.6148         0.000000   
    174. B(S  35,C   3)                 20.8225         0.000000   
    175. B(S  35,C   6)                 22.5580         0.000000   
    176. B(S  35,H  21)                 22.4932         0.000000   
    177. B(S  35,N   0)                 22.4514         0.000000   
    178. B(S  35,H  20)                 20.7811         0.000000   
    179. B(S  35,N   1)                 24.5468         0.000000   
    180. B(S  35,H  18)                 24.4432         0.000000   
    181. B(S  35,H  15)                 22.2356         0.000000   
    182. B(S  35,H  12)                 20.5863         0.000000   
    183. B(S  35,H  11)                 20.4868         0.000000   
    184. B(S  35,H  16)                 24.0014         0.000000   
    185. B(S  35,C   4)                 21.9348         0.000000   
    186. B(S  35,C   7)                 23.8850         0.000000   
    187. B(S  35,C   5)                 23.6914         0.000000   
    188. B(S  35,H  13)                 19.9179         0.000000   
    189. B(S  35,H  17)                 21.7306         0.000000   
    190. B(S  35,C   8)                 21.6152         0.000000   
    191. B(S  35,H  10)                 21.5432         0.000000   
    192. B(S  35,H  19)                 21.4133         0.000000   
    193. B(S  35,C   2)                 21.2440         0.000000   
    194. B(S  35,H  14)                 22.8328         0.000000   
    195. B(S  35,C  31)                  1.8708         0.287990   
    196. B(S  35,O  27)                  1.4394         1.258527   
    197. B(N  36,C   5)                 24.8295         0.000000   
    198. B(N  36,C   8)                 22.5983         0.000000   
    199. B(N  36,H  19)                 22.4292         0.000000   
    200. B(N  36,C   2)                 22.3608         0.000000   
    201. B(N  36,H  14)                 23.8910         0.000000   
    202. B(N  36,C   3)                 21.9030         0.000000   
    203. B(N  36,C   6)                 23.7674         0.000000   
    204. B(N  36,N   0)                 23.6069         0.000000   
    205. B(N  36,H  20)                 21.7265         0.000000   
    206. B(N  36,H  21)                 23.4414         0.000000   
    207. B(N  36,H  12)                 21.7048         0.000000   
    208. B(N  36,H  11)                 21.6375         0.000000   
    209. B(N  36,H  15)                 23.2279         0.000000   
    210. B(N  36,H  17)                 22.9641         0.000000   
    211. B(N  36,C   4)                 22.9640         0.000000   
    212. B(N  36,S  35)                  1.5750         0.764663   
    213. B(N  36,S  30)                  1.5827         0.743325   
    214. B(N  36,H  10)                 22.6210         0.000000   
    215. B(N  36,H  13)                 20.9680         0.000000   
    216. B(F  37,H  14)                 24.7328         0.000000   
    217. B(F  37,H  21)                 24.5760         0.000000   
    218. B(F  37,H  12)                 22.4315         0.000000   
    219. B(F  37,C   6)                 24.1935         0.000000   
    220. B(F  37,H  15)                 24.1524         0.000000   
    221. B(F  37,H  11)                 22.1320         0.000000   
    222. B(F  37,N   0)                 24.1236         0.000000   
    223. B(F  37,C   4)                 23.8604         0.000000   
    224. B(F  37,C   8)                 23.6556         0.000000   
    225. B(F  37,H  13)                 21.7886         0.000000   
    226. B(F  37,H  19)                 23.4603         0.000000   
    227. B(F  37,H  17)                 23.3576         0.000000   
    228. B(F  37,H  10)                 23.2497         0.000000   
    229. B(F  37,C  31)                  1.3425         0.618983   
    230. B(F  37,C   2)                 22.9585         0.000000   
    231. B(F  37,H  20)                 22.8543         0.000000   
    232. B(F  37,C   3)                 22.6669         0.000000   
    233. B(F  38,C   3)                 24.6442         0.000000   
    234. B(F  38,H  12)                 24.4954         0.000000   
    235. B(F  38,H  20)                 24.3900         0.000000   
    236. B(F  38,H  11)                 24.3836         0.000000   
    237. B(F  38,H  13)                 23.6811         0.000000   
    238. B(F  38,C  33)                  1.3399         0.624997   
    239. B(O  39,H  19)                 20.8224         0.000000   
    240. B(O  39,H  10)                 20.6828         0.000000   
    241. B(O  39,H  14)                 22.1267         0.000000   
    242. B(O  39,C   2)                 20.4307         0.000000   
    243. B(O  39,H  20)                 20.1297         0.000000   
    244. B(O  39,N   1)                 23.7553         0.000000   
    245. B(O  39,C   3)                 20.0805         0.000000   
    246. B(O  39,H  18)                 23.7227         0.000000   
    247. B(O  39,H  21)                 21.8630         0.000000   
    248. B(O  39,C   6)                 21.8084         0.000000   
    249. B(O  39,H  12)                 19.8962         0.000000   
    250. B(O  39,N   0)                 21.6549         0.000000   
    251. B(O  39,H  11)                 19.6558         0.000000   
    252. B(O  39,H  13)                 19.1620         0.000000   
    253. B(O  39,S  35)                  1.4392         1.259438   
    254. B(O  39,H  16)                 23.1509         0.000000   
    255. B(O  39,H  15)                 21.4707         0.000000   
    256. B(O  39,C   7)                 23.1363         0.000000   
    257. B(O  39,C   5)                 22.8729         0.000000   
    258. B(O  39,C   4)                 21.2170         0.000000   
    259. B(O  39,H  17)                 21.0112         0.000000   
    260. B(O  39,C   8)                 20.9710         0.000000   
    261. A(O  27,N   0,C  31)            5.3811         0.089000   
    262. A(S  35,N   0,F  37)            5.1226         0.089000   
    263. A(O  25,N   0,N  36)            5.4956         0.089000   
    264. A(O  27,N   0,F  29)            7.5435         0.089000   
    265. A(C   5,N   0,F  37)          157.5585         0.089000   
    266. A(O  25,N   0,F  37)           10.2429         0.089000   
    267. A(C   2,N   0,C   6)          125.5767         0.393974   
    268. A(S  30,N   0,F  37)            9.5613         0.089000   
    269. A(F  26,N   0,N  36)            7.3759         0.089000   
    270. A(C   2,N   0,O  27)           35.6144         0.089000   
    271. A(C   6,N   0,F  29)           87.5195         0.089000   
    272. A(C   2,N   0,O  34)           28.7306         0.089000   
    273. A(C   2,N   0,N  36)           31.4454         0.089000   
    274. A(F  29,N   0,N  36)            9.3512         0.089000   
    275. A(C   2,N   0,F  29)           40.1559         0.089000   
    276. A(C   5,N   0,O  34)          154.5851         0.089000   
    277. A(C   5,N   0,O  27)          160.7630         0.089000   
    278. A(C   6,N   0,C  31)           89.7010         0.089000   
    279. A(F  29,N   0,O  39)            7.3055         0.089000   
    280. A(O  27,N   0,O  39)            6.5131         0.089000   
    281. A(C   2,N   0,F  26)           38.7974         0.089000   
    282. A(C   6,N   0,F  37)           91.2799         0.089000   
    283. A(C   2,N   0,O  39)           32.8614         0.089000   
    284. A(F  26,N   0,S  30)            8.1902         0.089000   
    285. A(C   5,N   0,F  26)          162.1967         0.089000   
    286. A(F  26,N   0,F  37)            5.1204         0.089000   
    287. A(C   2,N   0,O  25)           34.4685         0.089000   
    288. A(C   5,N   0,O  25)          160.2477         0.089000   
    289. A(C   6,N   0,O  27)           90.5250         0.089000   
    290. A(C   6,N   0,N  36)           95.0371         0.089000   
    291. A(C   6,N   0,O  34)           96.9893         0.089000   
    292. A(C   5,N   0,O  39)          155.5168         0.089000   
    293. A(O  34,N   0,N  36)            5.3475         0.089000   
    294. A(O  34,N   0,S  35)            7.5837         0.089000   
    295. A(C   5,N   0,C   6)          108.4240         0.433061   
    296. A(C   5,N   0,S  35)          158.0751         0.089000   
    297. A(C   2,N   0,S  35)           34.0178         0.089000   
    298. A(O  25,N   0,O  34)            5.7515         0.089000   
    299. A(O  25,N   0,O  39)            8.4410         0.089000   
    300. A(C   5,N   0,N  36)          156.0803         0.089000   
    301. A(F  26,N   0,O  39)            6.7467         0.089000   
    302. A(F  29,N   0,O  34)           14.1788         0.089000   
    303. A(O  25,N   0,F  29)           10.3394         0.089000   
    304. A(C  31,N   0,O  34)           11.5412         0.089000   
    305. A(C   2,N   0,C   5)          125.9030         0.405779   
    306. A(C   6,N   0,O  25)           91.3171         0.089000   
    307. A(C   6,N   0,S  35)           92.6916         0.089000   
    308. A(O  34,N   0,O  39)            9.0236         0.089000   
    309. A(C   6,N   0,O  39)           94.5930         0.089000   
    310. A(F  29,N   0,S  35)            6.7257         0.089000   
    311. A(C   5,N   0,F  29)          161.1334         0.089000   
    312. A(C   5,N   0,S  30)          157.0764         0.089000   
    313. A(N  36,N   0,F  37)            7.2349         0.089000   
    314. A(S  30,N   0,C  31)            8.2845         0.089000   
    315. A(C   2,N   0,S  30)           31.5312         0.089000   
    316. A(F  29,N   0,S  30)           10.8807         0.089000   
    317. A(S  30,N   0,O  39)            6.5689         0.089000   
    318. A(O  27,N   0,O  34)            7.4200         0.089000   
    319. A(C   6,N   0,F  26)           88.0122         0.089000   
    320. A(F  26,N   0,O  34)           11.5344         0.089000   
    321. A(O  25,N   0,S  35)            5.4897         0.089000   
    322. A(O  34,N   0,F  37)           12.5407         0.089000   
    323. A(C   2,N   0,F  37)           36.7879         0.089000   
    324. A(O  25,N   0,C  31)            8.1767         0.089000   
    325. A(C   6,N   0,S  30)           94.4246         0.089000   
    326. A(C   5,N   0,C  31)          159.9652         0.089000   
    327. A(C   2,N   0,C  31)           37.6044         0.089000   
    328. A(O  27,N   0,F  37)            7.5838         0.089000   
    329. A(C  31,N   0,N  36)            6.6444         0.089000   
    330. A(O  25,N   0,F  26)            7.1158         0.089000   
    331. A(C   7,N   1,O  39)           61.8176         0.089000   
    332. A(O  27,N   1,O  39)            5.9448         0.089000   
    333. A(C   5,N   1,C   9)          125.9305         0.408287   
    334. A(F  29,N   1,S  35)            6.1697         0.089000   
    335. A(C   5,N   1,S  35)           48.9107         0.089000   
    336. A(O  27,N   1,F  29)            6.9398         0.089000   
    337. A(C   5,N   1,C   7)          108.3785         0.431857   
    338. A(C   9,N   1,O  39)          169.0518         0.089000   
    339. A(C   7,N   1,F  29)           55.4925         0.089000   
    340. A(C   5,N   1,F  29)           54.0496         0.089000   
    341. A(C   5,N   1,O  39)           47.3664         0.089000   
    342. A(C   9,N   1,O  27)          174.9874         0.089000   
    343. A(C   9,N   1,S  35)          171.9010         0.089000   
    344. A(C   9,N   1,F  29)          170.0016         0.089000   
    345. A(C   7,N   1,C   9)          125.6895         0.396736   
    346. A(C   7,N   1,S  35)           59.8816         0.089000   
    347. A(C   5,N   1,O  27)           50.6949         0.089000   
    348. A(F  29,N   1,O  39)            6.7418         0.089000   
    349. A(C   7,N   1,O  27)           57.8212         0.089000   
    350. A(H  10,C   2,F  29)          108.2702         0.089000   
    351. A(C   3,C   2,N  36)           70.6619         0.089000   
    352. A(O  27,C   2,F  37)            7.9601         0.089000   
    353. A(N   0,C   2,S  30)          146.5757         0.089000   
    354. A(N   0,C   2,C  31)          140.0757         0.089000   
    355. A(H  10,C   2,O  27)          107.5876         0.089000   
    356. A(S  30,C   2,C  31)            8.7997         0.089000   
    357. A(H  11,C   2,S  30)           49.7271         0.089000   
    358. A(O  27,C   2,O  34)            8.0760         0.089000   
    359. A(H  11,C   2,O  27)           46.3263         0.089000   
    360. A(F  26,C   2,O  39)            6.8681         0.089000   
    361. A(H  11,C   2,O  39)           43.5925         0.089000   
    362. A(C   3,C   2,H  10)          111.1791         0.325209   
    363. A(F  29,C   2,S  30)           11.6056         0.089000   
    364. A(C   3,C   2,S  35)           71.9755         0.089000   
    365. A(O  25,C   2,C  31)            8.6464         0.089000   
    366. A(O  34,C   2,N  36)            5.6872         0.089000   
    367. A(O  25,C   2,F  26)            7.4951         0.089000   
    368. A(F  29,C   2,O  39)            7.5972         0.089000   
    369. A(C   3,C   2,S  30)           67.6396         0.089000   
    370. A(H  11,C   2,S  35)           44.9192         0.089000   
    371. A(O  25,C   2,S  35)            5.7723         0.089000   
    372. A(C   3,C   2,F  37)           77.1076         0.089000   
    373. A(H  11,C   2,O  25)           49.4108         0.089000   
    374. A(N   0,C   2,F  26)          138.9135         0.089000   
    375. A(N   0,C   2,N  36)          146.5811         0.089000   
    376. A(H  10,C   2,S  30)          103.8503         0.089000   
    377. A(C   3,C   2,C  31)           74.7883         0.089000   
    378. A(H  10,C   2,C  31)          106.5684         0.089000   
    379. A(O  34,C   2,O  39)            9.6703         0.089000   
    380. A(O  27,C   2,O  39)            6.8839         0.089000   
    381. A(F  29,C   2,O  34)           15.0908         0.089000   
    382. A(H  11,C   2,C  31)           41.0090         0.089000   
    383. A(H  10,C   2,N  36)          102.4583         0.089000   
    384. A(C  31,C   2,N  36)            7.0158         0.089000   
    385. A(N   0,C   2,C   3)          112.1935         0.367601   
    386. A(H  11,C   2,F  37)           39.7814         0.089000   
    387. A(F  26,C   2,O  34)           12.1587         0.089000   
    388. A(O  27,C   2,N  36)            5.1301         0.089000   
    389. A(H  11,C   2,N  36)           47.3622         0.089000   
    390. A(O  25,C   2,O  39)            8.8578         0.089000   
    391. A(F  26,C   2,N  36)            7.6929         0.089000   
    392. A(H  11,C   2,F  29)           38.4325         0.089000   
    393. A(C   3,C   2,O  39)           74.6383         0.089000   
    394. A(H  10,C   2,O  25)          107.3314         0.089000   
    395. A(F  29,C   2,N  36)            9.9433         0.089000   
    396. A(C   3,C   2,F  29)           76.5239         0.089000   
    397. A(H  10,C   2,S  35)          104.5277         0.089000   
    398. A(N   0,C   2,H  11)          106.9547         0.327114   
    399. A(C   3,C   2,O  27)           69.2149         0.089000   
    400. A(F  26,C   2,F  37)            5.3687         0.089000   
    401. A(O  27,C   2,C  31)            5.6135         0.089000   
    402. A(N   0,C   2,H  10)          106.7161         0.327065   
    403. A(O  25,C   2,F  29)           10.9892         0.089000   
    404. A(O  25,C   2,O  34)            6.0487         0.089000   
    405. A(O  34,C   2,F  37)           13.2331         0.089000   
    406. A(O  27,C   2,F  29)            7.8992         0.089000   
    407. A(N   0,C   2,S  35)          143.7544         0.089000   
    408. A(S  35,C   2,F  37)            5.3081         0.089000   
    409. A(N   0,C   2,O  27)          142.0036         0.089000   
    410. A(C   3,C   2,O  25)           66.3299         0.089000   
    411. A(H  10,C   2,O  39)          101.8903         0.089000   
    412. A(H  11,C   2,F  26)           41.9278         0.089000   
    413. A(H  10,C   2,O  34)          101.8551         0.089000   
    414. A(C   3,C   2,O  34)           65.4769         0.089000   
    415. A(N   0,C   2,O  34)          149.5312         0.089000   
    416. A(F  26,C   2,S  30)            8.6309         0.089000   
    417. A(H  10,C   2,F  37)          104.1912         0.089000   
    418. A(C   3,C   2,F  26)           72.9850         0.089000   
    419. A(H  10,C   2,F  26)          108.7405         0.089000   
    420. A(O  25,C   2,F  37)           10.7783         0.089000   
    421. A(O  25,C   2,N  36)            5.7347         0.089000   
    422. A(H  11,C   2,O  34)           53.0052         0.089000   
    423. A(C  31,C   2,O  34)           12.2418         0.089000   
    424. A(O  34,C   2,S  35)            8.1446         0.089000   
    425. A(N   0,C   2,O  25)          143.4968         0.089000   
    426. A(N   0,C   2,F  29)          137.3065         0.089000   
    427. A(S  30,C   2,F  37)           10.0820         0.089000   
    428. A(N   0,C   2,F  37)          141.0055         0.089000   
    429. A(F  29,C   2,S  35)            7.0694         0.089000   
    430. A(N   0,C   2,O  39)          144.8918         0.089000   
    431. A(S  30,C   2,O  39)            7.0029         0.089000   
    432. A(C   3,C   2,H  11)          111.6580         0.325257   
    433. A(H  10,C   2,H  11)          107.8661         0.290882   
    434. A(N  36,C   2,F  37)            7.5825         0.089000   
    435. A(H  12,C   3,C  33)           77.8540         0.089000   
    436. A(H  13,C   3,O  25)           34.0520         0.089000   
    437. A(S  30,C   3,C  31)            9.1126         0.089000   
    438. A(O  27,C   3,F  29)            7.8870         0.089000   
    439. A(F  29,C   3,O  39)            7.6667         0.089000   
    440. A(C  31,C   3,C  33)            7.9728         0.089000   
    441. A(H  13,C   3,F  38)           27.6366         0.089000   
    442. A(H  13,C   3,F  29)           39.6448         0.089000   
    443. A(H  12,C   3,F  29)           72.1576         0.089000   
    444. A(O  34,C   3,F  38)            5.6225         0.089000   
    445. A(C   4,C   3,F  29)          141.9838         0.089000   
    446. A(H  13,C   3,O  27)           35.3522         0.089000   
    447. A(C   2,C   3,F  26)          103.3399         0.089000   
    448. A(H  12,C   3,F  32)           76.4257         0.089000   
    449. A(N  36,C   3,F  37)            7.6127         0.089000   
    450. A(C   4,C   3,O  25)          130.5444         0.089000   
    451. A(H  12,C   3,O  27)           72.9945         0.089000   
    452. A(F  26,C   3,C  33)            8.2765         0.089000   
    453. A(C  31,C   3,F  38)            9.5759         0.089000   
    454. A(C   4,C   3,S  30)          130.0859         0.089000   
    455. A(O  27,C   3,F  38)            7.9950         0.089000   
    456. A(C   2,C   3,F  32)          104.6257         0.089000   
    457. A(S  35,C   3,F  37)            5.0889         0.089000   
    458. A(C   2,C   3,H  12)          109.5379         0.324354   
    459. A(F  38,C   3,O  39)            5.6119         0.089000   
    460. A(C  33,C   3,F  37)            8.7012         0.089000   
    461. A(H  12,C   3,S  30)           76.7357         0.089000   
    462. A(C   4,C   3,C  31)          139.1718         0.089000   
    463. A(O  25,C   3,F  37)           11.0511         0.089000   
    464. A(C   2,C   3,C  33)          106.7959         0.089000   
    465. A(H  13,C   3,C  33)           30.2812         0.089000   
    466. A(C   4,C   3,F  37)          140.1591         0.089000   
    467. A(C   4,C   3,N  36)          132.5480         0.089000   
    468. A(O  27,C   3,N  36)            5.1661         0.089000   
    469. A(F  26,C   3,F  32)            5.5361         0.089000   
    470. A(C  31,C   3,N  36)            7.1512         0.089000   
    471. A(C   2,C   3,O  25)          110.1814         0.089000   
    472. A(C   2,C   3,O  34)          111.0334         0.089000   
    473. A(C   4,C   3,F  38)          131.0105         0.089000   
    474. A(H  13,C   3,O  39)           31.9803         0.089000   
    475. A(O  34,C   3,S  35)            8.6192         0.089000   
    476. A(O  27,C   3,C  31)            5.4200         0.089000   
    477. A(O  25,C   3,N  36)            6.0034         0.089000   
    478. A(O  25,C   3,F  38)            8.1917         0.089000   
    479. A(H  13,C   3,S  35)           33.3087         0.089000   
    480. A(O  25,C   3,C  31)            9.0113         0.089000   
    481. A(H  13,C   3,N  36)           30.4635         0.089000   
    482. A(C   2,C   3,S  30)          108.8177         0.089000   
    483. A(H  13,C   3,O  34)           27.9439         0.089000   
    484. A(H  12,C   3,O  25)           73.1707         0.089000   
    485. A(H  12,C   3,S  35)           76.0611         0.089000   
    486. A(O  25,C   3,O  34)            6.1991         0.089000   
    487. A(H  13,C   3,C  31)           36.8707         0.089000   
    488. A(C   4,C   3,C  33)          131.4894         0.089000   
    489. A(H  12,C   3,C  31)           73.8737         0.089000   
    490. A(C   4,C   3,S  35)          135.2846         0.089000   
    491. A(C   2,C   3,C  31)          101.3578         0.089000   
    492. A(C   2,C   3,S  35)          104.0297         0.089000   
    493. A(C  31,C   3,O  34)           12.6286         0.089000   
    494. A(F  26,C   3,O  34)           12.4376         0.089000   
    495. A(F  37,C   3,F  38)            9.3865         0.089000   
    496. A(S  35,C   3,F  38)            5.7073         0.089000   
    497. A(F  29,C   3,F  38)           12.5778         0.089000   
    498. A(H  13,C   3,F  26)           38.1827         0.089000   
    499. A(S  30,C   3,S  35)            5.2452         0.089000   
    500. A(S  30,C   3,O  39)            7.6610         0.089000   
    501. A(O  27,C   3,C  33)            5.0844         0.089000   
    502. A(F  26,C   3,S  30)            8.8225         0.089000   
    503. A(O  25,C   3,C  33)            5.1622         0.089000   
    504. A(C  31,C   3,O  39)            5.0701         0.089000   
    505. A(O  27,C   3,O  39)            7.0570         0.089000   
    506. A(H  13,C   3,S  30)           30.7453         0.089000   
    507. A(H  12,C   3,F  26)           71.6378         0.089000   
    508. A(O  34,C   3,F  37)           13.5308         0.089000   
    509. A(F  29,C   3,S  35)            7.1531         0.089000   
    510. A(C   4,C   3,H  13)          109.9586         0.324043   
    511. A(S  30,C   3,F  37)           10.3092         0.089000   
    512. A(O  27,C   3,O  34)            8.5059         0.089000   
    513. A(O  34,C   3,O  39)           10.3672         0.089000   
    514. A(C   2,C   3,H  13)          106.6365         0.324572   
    515. A(H  12,C   3,O  34)           78.8407         0.089000   
    516. A(C   4,C   3,O  34)          126.6767         0.089000   
    517. A(H  12,C   3,F  38)           80.9218         0.089000   
    518. A(F  26,C   3,O  39)            7.1247         0.089000   
    519. A(F  32,C   3,F  37)            5.8290         0.089000   
    520. A(F  29,C   3,O  34)           15.6188         0.089000   
    521. A(H  12,C   3,H  13)          106.1036         0.289569   
    522. A(F  29,C   3,S  30)           12.0594         0.089000   
    523. A(O  27,C   3,F  37)            7.6762         0.089000   
    524. A(H  13,C   3,F  37)           35.7160         0.089000   
    525. A(H  12,C   3,F  37)           76.2222         0.089000   
    526. A(F  26,C   3,N  36)            7.8005         0.089000   
    527. A(C   4,C   3,O  27)          134.1258         0.089000   
    528. A(H  13,C   3,F  32)           32.6624         0.089000   
    529. A(H  12,C   3,N  36)           78.1508         0.089000   
    530. A(C   4,C   3,F  32)          134.4806         0.089000   
    531. A(C   4,C   3,H  12)          110.1682         0.323825   
    532. A(F  29,C   3,C  33)           11.0154         0.089000   
    533. A(C   2,C   3,C   4)          114.0809         0.364807   
    534. A(H  12,C   3,O  39)           78.7622         0.089000   
    535. A(C   2,C   3,F  29)           99.4628         0.089000   
    536. A(F  26,C   3,F  37)            5.4685         0.089000   
    537. A(C   4,C   3,O  39)          136.6060         0.089000   
    538. A(F  29,C   3,N  36)           10.2034         0.089000   
    539. A(C   2,C   3,O  39)          101.1609         0.089000   
    540. A(C   2,C   3,O  27)          106.7347         0.089000   
    541. A(C   4,C   3,F  26)          138.2387         0.089000   
    542. A(C   2,C   3,F  38)          105.4271         0.089000   
    543. A(O  25,C   3,S  35)            6.2735         0.089000   
    544. A(C   2,C   3,F  37)           99.1310         0.089000   
    545. A(O  25,C   3,F  32)            5.8349         0.089000   
    546. A(F  32,C   3,O  34)            7.8086         0.089000   
    547. A(O  34,C   3,N  36)            5.9639         0.089000   
    548. A(O  25,C   3,F  29)           11.5069         0.089000   
    549. A(F  29,C   3,F  32)            7.9670         0.089000   
    550. A(O  25,C   3,O  39)            9.5504         0.089000   
    551. A(O  25,C   3,F  26)            7.6944         0.089000   
    552. A(F  26,C   3,F  38)           10.5611         0.089000   
    553. A(C   2,C   3,N  36)          105.5700         0.089000   
    554. A(F  32,C   3,F  38)            5.0284         0.089000   
    555. A(C  33,C   3,O  39)            5.6948         0.089000   
    556. A(H  15,C   4,F  29)          108.0342         0.089000   
    557. A(C   3,C   4,F  29)           35.6102         0.089000   
    558. A(F  26,C   4,O  34)           11.8793         0.089000   
    559. A(H  15,C   4,O  39)          101.9514         0.089000   
    560. A(F  26,C   4,F  37)            5.2014         0.089000   
    561. A(H  14,C   4,O  39)          145.3150         0.089000   
    562. A(F  26,C   4,N  36)            7.3567         0.089000   
    563. A(F  26,C   4,S  30)            8.4201         0.089000   
    564. A(H  14,C   4,F  29)          138.1737         0.089000   
    565. A(C   8,C   4,F  29)           80.4342         0.089000   
    566. A(H  15,C   4,O  34)          102.1203         0.089000   
    567. A(F  26,C   4,O  39)            6.6953         0.089000   
    568. A(H  15,C   4,O  25)          107.4604         0.089000   
    569. A(H  14,C   4,O  25)          143.9068         0.089000   
    570. A(H  15,C   4,S  35)          104.5577         0.089000   
    571. A(C   8,C   4,O  25)           69.9184         0.089000   
    572. A(C   8,C   4,O  39)           78.6907         0.089000   
    573. A(C   8,C   4,H  15)          109.5532         0.323764   
    574. A(H  14,C   4,F  37)          141.9820         0.089000   
    575. A(O  34,C   4,N  36)            5.8098         0.089000   
    576. A(C   3,C   4,H  14)          109.7807         0.323560   
    577. A(C   8,C   4,H  14)          109.0477         0.323771   
    578. A(O  34,C   4,S  35)            8.4693         0.089000   
    579. A(H  15,C   4,C  31)          106.4868         0.089000   
    580. A(C   8,C   4,C  31)           78.4893         0.089000   
    581. A(C   3,C   4,C  31)           38.3470         0.089000   
    582. A(F  29,C   4,N  36)            9.7550         0.089000   
    583. A(O  25,C   4,C  31)            8.6942         0.089000   
    584. A(H  15,C   4,N  36)          102.6144         0.089000   
    585. A(H  14,C   4,N  36)          147.0581         0.089000   
    586. A(C   8,C   4,N  36)           74.2855         0.089000   
    587. A(H  14,C   4,C  31)          140.8762         0.089000   
    588. A(C  31,C   4,N  36)            6.7970         0.089000   
    589. A(O  25,C   4,F  26)            7.3577         0.089000   
    590. A(S  30,C   4,S  35)            5.2400         0.089000   
    591. A(O  25,C   4,O  34)            5.9288         0.089000   
    592. A(O  34,C   4,F  37)           12.9216         0.089000   
    593. A(O  25,C   4,N  36)            5.7790         0.089000   
    594. A(O  25,C   4,F  29)           11.1329         0.089000   
    595. A(O  25,C   4,S  35)            6.1758         0.089000   
    596. A(O  25,C   4,O  39)            9.3184         0.089000   
    597. A(C   3,C   4,O  25)           46.6800         0.089000   
    598. A(H  14,C   4,S  35)          144.2212         0.089000   
    599. A(C   8,C   4,F  26)           76.5909         0.089000   
    600. A(C   3,C   4,F  26)           39.3224         0.089000   
    601. A(C   3,C   4,C   8)          112.5050         0.364434   
    602. A(C   3,C   4,O  39)           40.5577         0.089000   
    603. A(S  30,C   4,F  37)            9.8391         0.089000   
    604. A(N  36,C   4,F  37)            7.1542         0.089000   
    605. A(O  27,C   4,F  37)            7.0556         0.089000   
    606. A(H  15,C   4,F  37)          104.1892         0.089000   
    607. A(C   8,C   4,F  37)           80.4718         0.089000   
    608. A(H  14,C   4,H  15)          106.5843         0.288925   
    609. A(C   3,C   4,F  37)           37.4893         0.089000   
    610. A(S  30,C   4,C  31)            8.7816         0.089000   
    611. A(F  29,C   4,S  30)           11.6446         0.089000   
    612. A(S  30,C   4,O  39)            7.5835         0.089000   
    613. A(H  15,C   4,S  30)          104.0380         0.089000   
    614. A(O  25,C   4,F  37)           10.5572         0.089000   
    615. A(H  14,C   4,S  30)          146.9974         0.089000   
    616. A(C   3,C   4,S  30)           47.1035         0.089000   
    617. A(C  31,C   4,O  34)           12.1440         0.089000   
    618. A(F  29,C   4,O  34)           15.0478         0.089000   
    619. A(O  34,C   4,O  39)           10.2104         0.089000   
    620. A(H  14,C   4,O  34)          149.7969         0.089000   
    621. A(C   8,C   4,O  34)           68.8850         0.089000   
    622. A(C   3,C   4,O  34)           50.3646         0.089000   
    623. A(C   3,C   4,S  35)           41.9058         0.089000   
    624. A(H  15,C   4,O  27)          107.5512         0.089000   
    625. A(H  14,C   4,F  26)          139.7402         0.089000   
    626. A(H  15,C   4,F  26)          108.6455         0.089000   
    627. A(H  14,C   4,O  27)          142.3384         0.089000   
    628. A(C   8,C   4,O  27)           73.5588         0.089000   
    629. A(O  27,C   4,O  39)            6.6908         0.089000   
    630. A(C   3,C   4,O  27)           42.9199         0.089000   
    631. A(C   8,C   4,S  30)           71.1086         0.089000   
    632. A(C   8,C   4,S  35)           75.9586         0.089000   
    633. A(O  27,C   4,O  34)            8.4134         0.089000   
    634. A(C   3,C   4,N  36)           44.6419         0.089000   
    635. A(F  29,C   4,S  35)            6.7287         0.089000   
    636. A(O  27,C   4,F  29)            7.3376         0.089000   
    637. A(F  29,C   4,O  39)            7.1544         0.089000   
    638. A(C   3,C   4,H  15)          109.1949         0.323553   
    639. A(N   0,C   5,O  39)           23.1012         0.089000   
    640. A(N   1,C   5,O  39)          130.1747         0.089000   
    641. A(N   1,C   5,H  16)          125.5270         0.360076   
    642. A(H  16,C   5,O  39)          103.6692         0.089000   
    643. A(N   0,C   5,H  16)          125.5159         0.360705   
    644. A(N   1,C   5,C  31)          125.6233         0.089000   
    645. A(H  16,C   5,N  36)          103.2452         0.089000   
    646. A(H  16,C   5,O  27)          107.6260         0.089000   
    647. A(N   0,C   5,C  31)           18.9751         0.089000   
    648. A(N   0,C   5,N  36)           22.6742         0.089000   
    649. A(N   1,C   5,N  36)          131.0239         0.089000   
    650. A(H  16,C   5,C  31)          108.2094         0.089000   
    651. A(C  31,C   5,N  36)            6.3165         0.089000   
    652. A(H  16,C   5,F  29)          110.2401         0.089000   
    653. A(F  29,C   5,N  36)            8.8975         0.089000   
    654. A(O  27,C   5,C  31)            5.1080         0.089000   
    655. A(F  29,C   5,S  35)            6.3678         0.089000   
    656. A(O  27,C   5,F  29)            7.1361         0.089000   
    657. A(F  29,C   5,O  39)            6.8785         0.089000   
    658. A(N   1,C   5,O  27)          126.7470         0.089000   
    659. A(N   1,C   5,F  29)          123.3577         0.089000   
    660. A(N   0,C   5,F  29)           17.8334         0.089000   
    661. A(N   1,C   5,S  35)          128.6573         0.089000   
    662. A(O  27,C   5,O  39)            6.1518         0.089000   
    663. A(N   0,C   5,O  27)           18.1504         0.089000   
    664. A(H  16,C   5,S  35)          105.5007         0.089000   
    665. A(N   0,C   5,S  35)           20.7228         0.089000   
    666. A(N   0,C   5,N   1)          108.9570         0.445552   
    667. A(N   0,C   6,C  31)           86.9313         0.089000   
    668. A(S  35,C   6,F  37)            5.1741         0.089000   
    669. A(N  36,C   6,F  37)            7.2338         0.089000   
    670. A(H  17,C   6,O  25)           36.7152         0.089000   
    671. A(C   7,C   6,O  39)          167.5585         0.089000   
    672. A(C   7,C   6,H  17)          130.5768         0.363830   
    673. A(C   7,C   6,F  26)          162.5021         0.089000   
    674. A(O  27,C   6,F  37)            7.5370         0.089000   
    675. A(C   7,C   6,C  31)          163.3096         0.089000   
    676. A(N   0,C   6,H  17)          122.2125         0.350746   
    677. A(O  25,C   6,O  34)            5.7182         0.089000   
    678. A(F  26,C   6,O  34)           11.4382         0.089000   
    679. A(O  34,C   6,F  37)           12.4336         0.089000   
    680. A(O  34,C   6,N  36)            5.2561         0.089000   
    681. A(H  17,C   6,F  26)           34.1036         0.089000   
    682. A(H  17,C   6,F  37)           38.1709         0.089000   
    683. A(C   7,C   6,O  34)          172.9285         0.089000   
    684. A(N   0,C   6,O  34)           79.8622         0.089000   
    685. A(O  25,C   6,F  26)            7.0778         0.089000   
    686. A(O  25,C   6,F  37)           10.2136         0.089000   
    687. A(N   0,C   6,S  30)           82.3971         0.089000   
    688. A(F  26,C   6,N  36)            7.4302         0.089000   
    689. A(O  27,C   6,O  39)            6.4984         0.089000   
    690. A(F  26,C   6,F  37)            5.1246         0.089000   
    691. A(F  26,C   6,S  35)            5.0229         0.089000   
    692. A(O  25,C   6,N  36)            5.5682         0.089000   
    693. A(N   0,C   6,O  39)           81.7992         0.089000   
    694. A(N   0,C   6,O  27)           85.8742         0.089000   
    695. A(S  30,C   6,F  37)            9.4968         0.089000   
    696. A(H  17,C   6,O  34)           42.3517         0.089000   
    697. A(F  29,C   6,N  36)            9.1944         0.089000   
    698. A(F  26,C   6,O  39)            7.0964         0.089000   
    699. A(N   0,C   6,F  26)           88.7391         0.089000   
    700. A(C   7,C   6,O  25)          167.2504         0.089000   
    701. A(O  25,C   6,O  39)            8.5814         0.089000   
    702. A(O  25,C   6,S  35)            5.5575         0.089000   
    703. A(N   0,C   6,O  25)           85.5016         0.089000   
    704. A(C   7,C   6,F  37)          163.2003         0.089000   
    705. A(N   0,C   6,F  37)           85.4587         0.089000   
    706. A(F  26,C   6,S  30)            8.1264         0.089000   
    707. A(N   0,C   6,N  36)           81.6550         0.089000   
    708. A(F  29,C   6,O  34)           13.9212         0.089000   
    709. A(C   7,C   6,O  27)          166.4193         0.089000   
    710. A(O  34,C   6,S  35)            7.3581         0.089000   
    711. A(H  17,C   6,O  39)           41.1978         0.089000   
    712. A(H  17,C   6,S  30)           39.8523         0.089000   
    713. A(O  27,C   6,O  34)            7.0189         0.089000   
    714. A(H  17,C   6,O  27)           36.4726         0.089000   
    715. A(S  30,C   6,C  31)            8.1572         0.089000   
    716. A(O  34,C   6,O  39)            8.8472         0.089000   
    717. A(H  17,C   6,N  36)           40.7991         0.089000   
    718. A(C   7,C   6,N  36)          169.8535         0.089000   
    719. A(O  25,C   6,C  31)            8.1251         0.089000   
    720. A(C   7,C   6,S  30)          170.1527         0.089000   
    721. A(C  31,C   6,O  34)           11.3694         0.089000   
    722. A(F  29,C   6,S  30)           10.6676         0.089000   
    723. A(S  30,C   6,O  39)            6.5518         0.089000   
    724. A(F  29,C   6,S  35)            6.7236         0.089000   
    725. A(O  27,C   6,F  29)            7.5825         0.089000   
    726. A(H  17,C   6,F  29)           34.5990         0.089000   
    727. A(C   7,C   6,F  29)          160.7157         0.089000   
    728. A(N   0,C   6,F  29)           88.9896         0.089000   
    729. A(F  29,C   6,O  39)            7.4174         0.089000   
    730. A(O  25,C   6,F  29)           10.2200         0.089000   
    731. A(H  17,C   6,S  35)           38.8099         0.089000   
    732. A(C   7,C   6,S  35)          167.3573         0.089000   
    733. A(N   0,C   6,S  35)           83.8132         0.089000   
    734. A(C  31,C   6,N  36)            6.5868         0.089000   
    735. A(N   0,C   6,C   7)          107.2090         0.436799   
    736. A(O  27,C   6,C  31)            5.4114         0.089000   
    737. A(C  31,C   6,O  39)            5.1370         0.089000   
    738. A(H  17,C   6,C  31)           36.2146         0.089000   
    739. A(O  27,C   7,C  31)            5.1455         0.089000   
    740. A(C   6,C   7,O  27)           12.7946         0.089000   
    741. A(N   1,C   7,O  27)          119.3020         0.089000   
    742. A(C   6,C   7,C  31)           15.7871         0.089000   
    743. A(N   1,C   7,C  31)          120.0248         0.089000   
    744. A(H  18,C   7,O  39)          121.9249         0.089000   
    745. A(C   6,C   7,O  39)           11.7170         0.089000   
    746. A(N   1,C   7,O  39)          115.1726         0.089000   
    747. A(H  18,C   7,O  27)          118.3617         0.089000   
    748. A(F  29,C   7,S  35)            6.3557         0.089000   
    749. A(H  18,C   7,S  35)          120.1669         0.089000   
    750. A(C   6,C   7,S  35)           11.9297         0.089000   
    751. A(N   1,C   7,S  35)          117.2576         0.089000   
    752. A(O  27,C   7,F  29)            7.1815         0.089000   
    753. A(F  29,C   7,O  39)            7.0313         0.089000   
    754. A(H  18,C   7,F  29)          114.9918         0.089000   
    755. A(C   6,C   7,F  29)           18.2079         0.089000   
    756. A(N   1,C   7,F  29)          121.7811         0.089000   
    757. A(N   1,C   7,C   6)          107.0303         0.436385   
    758. A(O  27,C   7,O  39)            6.1273         0.089000   
    759. A(H  18,C   7,C  31)          117.0269         0.089000   
    760. A(C   6,C   7,H  18)          130.7712         0.363770   
    761. A(N   1,C   7,H  18)          122.1968         0.350377   
    762. A(S  30,C   8,C  31)            9.0047         0.089000   
    763. A(F  29,C   8,S  30)           11.9819         0.089000   
    764. A(S  30,C   8,S  35)            5.6143         0.089000   
    765. A(S  30,C   8,O  39)            8.1372         0.089000   
    766. A(O  27,C   8,S  30)            5.3161         0.089000   
    767. A(H  21,C   8,S  30)          137.2735         0.089000   
    768. A(H  20,C   8,S  30)           35.6821         0.089000   
    769. A(H  19,C   8,S  30)           78.0959         0.089000   
    770. A(C   4,C   8,S  30)          105.3505         0.089000   
    771. A(H  19,C   8,O  27)           74.8431         0.089000   
    772. A(F  29,C   8,O  39)            7.1771         0.089000   
    773. A(O  27,C   8,F  29)            7.2269         0.089000   
    774. A(H  20,C   8,F  29)           45.6389         0.089000   
    775. A(H  19,C   8,F  29)           74.6598         0.089000   
    776. A(C   4,C   8,F  29)           95.6793         0.089000   
    777. A(F  29,C   8,O  34)           15.4308         0.089000   
    778. A(O  27,C   8,O  34)            8.8169         0.089000   
    779. A(H  21,C   8,O  34)          133.9087         0.089000   
    780. A(H  20,C   8,O  34)           32.5265         0.089000   
    781. A(H  19,C   8,O  34)           79.9184         0.089000   
    782. A(H  19,C   8,O  39)           80.7000         0.089000   
    783. A(C   4,C   8,O  34)          107.6006         0.089000   
    784. A(C   4,C   8,O  39)           97.2146         0.089000   
    785. A(H  21,C   8,O  27)          142.0452         0.089000   
    786. A(H  20,C   8,O  27)           40.7714         0.089000   
    787. A(C   4,C   8,O  27)          102.4232         0.089000   
    788. A(C  31,C   8,O  34)           12.4133         0.089000   
    789. A(O  27,C   8,O  39)            6.7909         0.089000   
    790. A(C  31,C   8,N  36)            6.8728         0.089000   
    791. A(F  29,C   8,S  35)            6.7449         0.089000   
    792. A(H  21,C   8,C  31)          146.2774         0.089000   
    793. A(H  20,C   8,C  31)           42.7451         0.089000   
    794. A(H  19,C   8,C  31)           76.0595         0.089000   
    795. A(C   4,C   8,C  31)           97.7515         0.089000   
    796. A(H  20,C   8,H  21)          107.7904         0.290472   
    797. A(H  21,C   8,S  35)          142.7715         0.089000   
    798. A(H  21,C   8,F  29)          149.2043         0.089000   
    799. A(H  20,C   8,S  35)           39.2351         0.089000   
    800. A(O  34,C   8,O  39)           10.7818         0.089000   
    801. A(O  34,C   8,S  35)            8.8651         0.089000   
    802. A(H  19,C   8,S  35)           77.9229         0.089000   
    803. A(H  20,C   8,O  39)           38.6259         0.089000   
    804. A(C   4,C   8,S  35)          100.1114         0.089000   
    805. A(H  19,C   8,H  21)          107.7727         0.290384   
    806. A(C   4,C   8,H  21)          111.0000         0.324782   
    807. A(F  29,C   8,N  36)            9.9287         0.089000   
    808. A(O  27,C   8,N  36)            5.0368         0.089000   
    809. A(H  21,C   8,N  36)          139.7709         0.089000   
    810. A(H  20,C   8,N  36)           36.1618         0.089000   
    811. A(H  19,C   8,N  36)           79.7245         0.089000   
    812. A(C   4,C   8,N  36)          101.9848         0.089000   
    813. A(O  25,C   8,F  37)           10.7085         0.089000   
    814. A(S  30,C   8,F  37)            9.9561         0.089000   
    815. A(O  34,C   8,F  37)           13.0821         0.089000   
    816. A(N  36,C   8,F  37)            7.1082         0.089000   
    817. A(H  19,C   8,H  20)          107.8026         0.290201   
    818. A(O  27,C   8,F  37)            6.6996         0.089000   
    819. A(H  21,C   8,F  37)          146.8588         0.089000   
    820. A(H  20,C   8,F  37)           41.8687         0.089000   
    821. A(C   4,C   8,H  20)          111.1548         0.324566   
    822. A(O  25,C   8,F  26)            7.4777         0.089000   
    823. A(F  26,C   8,S  30)            8.5416         0.089000   
    824. A(F  26,C   8,O  34)           12.0596         0.089000   
    825. A(F  26,C   8,N  36)            7.4166         0.089000   
    826. A(F  26,C   8,O  39)            6.9372         0.089000   
    827. A(H  21,C   8,F  26)          145.3188         0.089000   
    828. A(H  20,C   8,F  26)           43.5688         0.089000   
    829. A(C   4,C   8,F  37)           95.8780         0.089000   
    830. A(H  19,C   8,F  37)           78.3959         0.089000   
    831. A(H  19,C   8,F  26)           73.7671         0.089000   
    832. A(C   4,C   8,F  26)           99.8020         0.089000   
    833. A(C   4,C   8,H  19)          111.1618         0.324464   
    834. A(H  21,C   8,O  39)          144.0244         0.089000   
    835. A(O  25,C   8,O  34)            6.0477         0.089000   
    836. A(O  34,C   8,N  36)            6.0250         0.089000   
    837. A(O  25,C   8,C  31)            8.9547         0.089000   
    838. A(O  25,C   8,N  36)            5.9998         0.089000   
    839. A(O  25,C   8,F  29)           11.5171         0.089000   
    840. A(O  25,C   8,S  35)            6.6026         0.089000   
    841. A(F  26,C   8,F  37)            5.2586         0.089000   
    842. A(O  25,C   8,O  39)            9.8978         0.089000   
    843. A(H  21,C   8,O  25)          137.8480         0.089000   
    844. A(H  20,C   8,O  25)           38.5663         0.089000   
    845. A(H  19,C   8,O  25)           74.5898         0.089000   
    846. A(C   4,C   8,O  25)          106.5827         0.089000   
    847. A(H  23,C   9,H  24)          109.9116         0.291384   
    848. A(H  22,C   9,H  24)          109.4438         0.291653   
    849. A(N   1,C   9,H  24)          109.5806         0.329816   
    850. A(H  22,C   9,H  23)          109.4309         0.291677   
    851. A(N   1,C   9,H  23)          109.4678         0.329845   
    852. A(N   1,C   9,H  22)          108.9886         0.330165   
    853. A(C   4,O  25,C   6)            8.9372         0.089000   
    854. A(C   6,O  25,C   8)           11.6986         0.089000   
    855. A(C   3,O  25,C   6)            6.3783         0.089000   
    856. A(C   6,O  25,S  30)           86.5839         0.089000   
    857. A(N   0,O  25,C   4)            6.9871         0.089000   
    858. A(N   0,O  25,C   8)           10.2486         0.089000   
    859. A(N   0,O  25,S  30)           83.6153         0.089000   
    860. A(C   2,O  25,C   6)            5.2095         0.089000   
    861. A(C   3,O  25,S  30)           83.0834         0.089000   
    862. A(C   2,O  25,C   4)            6.0861         0.089000   
    863. A(C   4,O  25,S  30)           82.8099         0.089000   
    864. A(C   2,O  25,C   8)            9.5526         0.089000   
    865. A(C   2,O  25,S  30)           81.8031         0.089000   
    866. A(C   3,O  25,C   8)            6.1254         0.089000   
    867. A(C   8,O  25,S  30)           84.0008         0.089000   
    868. A(N   0,F  26,C   4)            7.2290         0.089000   
    869. A(N   0,F  26,C   8)           10.6084         0.089000   
    870. A(N   0,F  26,C  31)           47.3146         0.089000   
    871. A(C   4,F  26,C   6)            9.2135         0.089000   
    872. A(C   6,F  26,C   8)           12.0970         0.089000   
    873. A(C   2,F  26,C   6)            5.5004         0.089000   
    874. A(C   3,F  26,C   6)            6.9514         0.089000   
    875. A(C   6,F  26,C  31)           49.6356         0.089000   
    876. A(C   2,F  26,C   4)            5.9582         0.089000   
    877. A(C   4,F  26,C  31)           49.8322         0.089000   
    878. A(C   3,F  26,C  31)           48.8750         0.089000   
    879. A(C   2,F  26,C   8)            9.5421         0.089000   
    880. A(C   3,F  26,C   8)            5.9164         0.089000   
    881. A(C   8,F  26,C  31)           52.5647         0.089000   
    882. A(C   2,F  26,C  31)           46.1658         0.089000   
    883. A(C   5,O  27,C   7)            5.4301         0.089000   
    884. A(C   4,O  27,C   7)           10.8835         0.089000   
    885. A(C   7,O  27,C   8)           13.9845         0.089000   
    886. A(C   2,O  27,C   7)            6.7354         0.089000   
    887. A(C   3,O  27,C   7)            8.1769         0.089000   
    888. A(C   7,O  27,S  35)          114.9453         0.089000   
    889. A(C   2,O  27,C   8)           10.7903         0.089000   
    890. A(C   3,O  27,C   8)            6.8057         0.089000   
    891. A(C   4,O  27,C   6)           10.1872         0.089000   
    892. A(C   6,O  27,C   8)           13.3795         0.089000   
    893. A(C   2,O  27,C   6)            5.9632         0.089000   
    894. A(C   8,O  27,S  35)          117.9794         0.089000   
    895. A(C   3,O  27,C   6)            7.4402         0.089000   
    896. A(C   6,O  27,S  35)          114.6386         0.089000   
    897. A(C   4,O  27,C   5)            7.7183         0.089000   
    898. A(C   5,O  27,C   8)           11.6096         0.089000   
    899. A(C   5,O  27,S  35)          111.5440         0.089000   
    900. A(N   0,O  27,C   4)            7.9901         0.089000   
    901. A(N   0,O  27,C   8)           11.7451         0.089000   
    902. A(N   0,O  27,C   3)            5.0358         0.089000   
    903. A(C   2,O  27,S  35)          111.1595         0.089000   
    904. A(N   0,O  27,S  35)          112.3707         0.089000   
    905. A(N   1,O  27,C   4)            9.0345         0.089000   
    906. A(N   1,O  27,C   8)           12.5974         0.089000   
    907. A(N   1,O  27,C   3)            6.1175         0.089000   
[...]
  H     -5.218884  -12.648441    0.269343
  H    -11.674089  -11.084077   -1.572323
  H    -11.947234  -11.262729    0.172995
  H    -12.649956   -9.880187   -0.705083
  O     11.418943    4.688463    2.175618
  F      9.280308    6.844855    1.727953
  O      8.490211    3.960227    1.496477
  F     13.786863    5.882124    0.796205
  F      7.261227    6.664255    0.956984
  S     11.605575    4.399455    0.777609
  C      8.560318    6.449847    0.673787
  F     11.987838    7.004141    0.336484
  C     12.613144    5.835155    0.140115
  O     12.389895    3.251317    0.405284
  S      8.829065    4.642872    0.275767
  N     10.339473    4.552427   -0.159434
  F      8.884607    7.229542   -0.369133
  F     12.879561    5.720767   -1.167650
  O      8.002665    4.448158   -0.886645

----------------------------
CARTESIAN COORDINATES (A.U.)
----------------------------
  NO LB      ZA    FRAG     MASS         X           Y           Z
   0 N     7.0000    0    14.007  -16.267461  -16.821754   -1.144670
   1 N     7.0000    0    14.007  -19.999052  -18.460217   -0.706712
   2 C     6.0000    0    12.011  -13.716068  -16.290686   -2.136206
   3 C     6.0000    0    12.011  -11.664468  -17.672805   -0.656070
   4 C     6.0000    0    12.011  -11.861878  -20.551325   -0.764141
   5 C     6.0000    0    12.011  -17.963747  -18.356001   -2.190287
   6 C     6.0000    0    12.011  -17.243943  -15.918719    1.091754
   7 C     6.0000    0    12.011  -19.581943  -16.940238    1.365565
   8 C     6.0000    0    12.011   -9.688992  -21.852032    0.619057
   9 C     6.0000    0    12.011  -22.287804  -19.934523   -1.198477
  10 H     1.0000    0     1.008  -13.717058  -16.859593   -4.115875
  11 H     1.0000    0     1.008  -13.453422  -14.249594   -2.068208
  12 H     1.0000    0     1.008  -11.676285  -17.029808    1.309086
  13 H     1.0000    0     1.008   -9.855409  -17.065118   -1.447402
  14 H     1.0000    0     1.008  -13.657792  -21.163549    0.064895
  15 H     1.0000    0     1.008  -11.887268  -21.157100   -2.743927
  16 H     1.0000    0     1.008  -17.728780  -19.352359   -3.947152
  17 H     1.0000    0     1.008  -16.216226  -14.634348    2.284899
  18 H     1.0000    0     1.008  -20.967539  -16.707677    2.834254
  19 H     1.0000    0     1.008   -9.655604  -21.328267    2.614914
  20 H     1.0000    0     1.008   -7.869587  -21.328080   -0.199934
  21 H     1.0000    0     1.008   -9.862261  -23.902090    0.508985
  22 H     1.0000    0     1.008  -22.060832  -20.945870   -2.971260
  23 H     1.0000    0     1.008  -22.577001  -21.283474    0.326914
  24 H     1.0000    0     1.008  -23.904953  -18.670847   -1.332414
  25 O     8.0000    0    15.999   21.578674    8.859912    4.111323
  26 F     9.0000    0    18.998   17.537241   12.934902    3.265358
  27 O     8.0000    0    15.999   16.044173    7.483745    2.827931
  28 F     9.0000    0    18.998   26.053395   11.115603    1.504610
  29 F     9.0000    0    18.998   13.721731   12.593616    1.808438
  30 S    16.0000    0    32.060   21.931359    8.313765    1.469469
  31 C     6.0000    0    12.011   16.176656   12.188444    1.273273
  32 F     9.0000    0    18.998   22.653730   13.235908    0.635863
  33 C     6.0000    0    12.011   23.835388   11.026845    0.264779
  34 O     8.0000    0    15.999   23.413509    6.144099    0.765876
  35 S    16.0000    0    32.060   16.684514    8.773756    0.521124
  36 N     7.0000    0    14.007   19.538772    8.602841   -0.301286
  37 F     9.0000    0    18.998   16.789474   13.661855   -0.697560
  38 F     9.0000    0    18.998   24.338843   10.810683   -2.206538
  39 O     8.0000    0    15.999   15.122846    8.405800   -1.675515

--------------------------------
INTERNAL COORDINATES (ANGSTROEM)
--------------------------------
 N      0   0   0     0.000000000000     0.00000000     0.00000000
 N      1   0   0     2.169054836203     0.00000000     0.00000000
 C      1   2   0     1.475520237998   161.28974845     0.00000000
 C      3   1   2     1.525473515105   112.16728366   261.47743011
 C      4   3   1     1.527895635200   114.21186283    62.20365324
 C      1   2   3     1.330816596300    35.56138079     7.47750309
 C      1   2   6     1.376937229149    72.85723550   180.24924033
 C      7   1   2     1.357906429392   107.18617118   359.90165203
 C      5   4   3     1.526977730414   112.33145148   176.80850374
 C      2   1   3     1.463995002277   161.29485292   351.87684625
 H      3   1   2     1.089995714764   106.78164339    23.51448178
 H      3   1   2     1.089599253026   107.08410261   138.76640955
 H      4   3   1     1.094184900423   109.56173830   298.04629358
 H      4   3   1     1.093258084574   106.58842574   183.63923915
 H      5   4   3     1.095719672206   109.82135856   298.46935259
 H      5   4   3     1.095685529935   109.16594848    55.00691021
 H      6   1   2     1.076003019851   125.46689083   180.07341663
 H      7   1   2     1.075337499200   122.29017408   180.22080501
 H      8   7   1     1.075546427593   130.74456414   180.56022643
 H      9   5   4     1.092066969350   111.18435137    60.27631130
 H      9   5   4     1.091632991060   111.05982166   300.27534089
 H      9   5   4     1.090269056585   111.07455674   180.31271561
 H     10   2   1     1.086695898653   108.93287221     0.76313642
 H     10   2   1     1.088372189941   109.51241001   120.42050679
 H     10   2   1     1.088355078729   109.55054352   241.04671157
 O     14   4   3    21.761399865516   143.41739123    98.24426794
 F     26  14   4     3.069884041652    83.71974764   296.00173326
 O     27  26  14     2.999818923326    61.26729316   357.18971239
 F     26  14   4     2.989088406504   142.64715932   194.80400790
 F     27  26  14     2.168800555781   129.93384937   346.76857460
 S     26  14   4     1.439717724996    80.86743220   199.73794987
 C     27  26  14     1.336294399985   106.42441069   314.97667993
 F     29  26  14     2.169506214262    69.35417170    84.32120677
 C     33  29  26     1.340185110694    36.19935579   290.72908877
 O     31  26  14     1.439445752773   118.81044933   272.96969128
 S     28  27  26     1.439082185309    63.08238145   264.47788531
 N     36  28  27     1.574456510002   115.66485333    91.42394778
 F     32  27  26     1.341927535321   108.12795207   253.09087095
 F     34  33  29     1.339519358887   108.07943301   243.76130849
 O     36  28  27     1.439461869966   119.05480773   223.70685641

---------------------------
INTERNAL COORDINATES (A.U.)
---------------------------
 N      0   0   0     0.000000000000     0.00000000     0.00000000
 N      1   0   0     4.098919609881     0.00000000     0.00000000
 C      1   2   0     2.788329154874   161.28974845     0.00000000
 C      3   1   2     2.882727168099   112.16728366   261.47743011
 C      4   3   1     2.887304311743   114.21186283    62.20365324
 C      1   2   3     2.514878901483    35.56138079     7.47750309
 C      1   2   6     2.602034266693    72.85723550   180.24924033
 C      7   1   2     2.566071267042   107.18617118   359.90165203
 C      5   4   3     2.885569723080   112.33145148   176.80850374
 C      2   1   3     2.766549615733   161.29485292   351.87684625
 H      3   1   2     2.059793388052   106.78164339    23.51448178
 H      3   1   2     2.059044183945   107.08410261   138.76640955
 H      4   3   1     2.067709801672   109.56173830   298.04629358
 H      4   3   1     2.065958373541   106.58842574   183.63923915
 H      5   4   3     2.070610100018   109.82135856   298.46935259
 H      5   4   3     2.070545580478   109.16594848    55.00691021
 H      6   1   2     2.033351026792   125.46689083   180.07341663
 H      7   1   2     2.032093375024   122.29017408   180.22080501
 H      8   7   1     2.032488192468   130.74456414   180.56022643
 H      9   5   4     2.063707491972   111.18435137    60.27631130
 H      9   5   4     2.062887391857   111.05982166   300.27534089
 H      9   5   4     2.060309929234   111.07455674   180.31271561
 H     10   2   1     2.053557639309   108.93287221     0.76313642
 H     10   2   1     2.056725370765   109.51241001   120.42050679
 H     10   2   1     2.056693035260   109.55054352   241.04671157
 O     14   4   3    41.123086036575   143.41739123    98.24426794
 F     26  14   4     5.801240101618    83.71974764   296.00173326
 O     27  26  14     5.668836216441    61.26729316   357.18971239
 F     26  14   4     5.648558478372   142.64715932   194.80400790
 F     27  26  14     4.098439089522   129.93384937   346.76857460
 S     26  14   4     2.720672210395    80.86743220   199.73794987
 C     27  26  14     2.525230450264   106.42441069   314.97667993
 F     29  26  14     4.099772590796    69.35417170    84.32120677
 C     33  29  26     2.532582827971    36.19935579   290.72908877
 O     31  26  14     2.720158257378   118.81044933   272.96969128
 S     28  27  26     2.719471214438    63.08238145   264.47788531
 N     36  28  27     2.975291613673   115.66485333    91.42394778
 F     32  27  26     2.535875533324   108.12795207   253.09087095
 F     34  33  29     2.531324739382   108.07943301   243.76130849
 O     36  28  27     2.720188714459   119.05480773   223.70685641



           ************************************************************
           *        Program running with 25 parallel MPI-processes    *
           *              working on a common directory               *
           ************************************************************
------------------------------------------------------------------------------
                   ___                                                        
                  /   \      - P O W E R E D   B Y -                         
                 /     \                                                     
                 |  |  |   _    _      __       _____    __    __             
                 |  |  |  | |  | |    /  \     |  _  \  |  |  /  |          
                  \  \/   | |  | |   /    \    | | | |  |  | /  /          
                 / \  \   | |__| |  /  /\  \   | |_| |  |  |/  /          
                |  |  |   |  __  | /  /__\  \  |    /   |      \           
                |  |  |   | |  | | |   __   |  |    \   |  |\   \          
                \     /   | |  | | |  |  |  |  | |\  \  |  | \   \       
                 \___/    |_|  |_| |__|  |__|  |_| \__\ |__|  \__/        
                                                                              
                      - O R C A' S   B I G   F R I E N D -                    
                                      &                                       
                       - I N T E G R A L  F E E D E R -                       
                                                                              
 v1 FN, 2020, v2 2021, v3 2022-2024                                           
------------------------------------------------------------------------------


----------------------
SHARK INTEGRAL PACKAGE
----------------------

Number of atoms                             ...     40
Number of basis functions                   ...    877
Number of shells                            ...    339
Maximum angular momentum                    ...      3
Integral batch strategy                     ... SHARK/LIBINT Hybrid
RI-J (if used) integral strategy            ... SPLIT-RIJ (Revised 2003 algorithm where possible)
Printlevel                                  ...      1
Contraction scheme used                     ... SEGMENTED contraction
Prescreening option                         ... SCHWARTZ
   Thresh                                   ... 2.500e-11
   Tcut                                     ... 2.500e-12
   Tpresel                                  ... 2.500e-12 
Coulomb Range Separation                    ... NOT USED
Exchange Range Separation                   ... NOT USED
Multipole approximations                    ... NOT USED
Finite Nucleus Model                        ... NOT USED
CABS basis                                  ... NOT available
Auxiliary Coulomb fitting basis             ... AVAILABLE
   # of basis functions in Aux-J            ...   1394
   # of shells in Aux-J                     ...    454
   Maximum angular momentum in Aux-J        ...      4
Auxiliary J/K fitting basis                 ... NOT available
Auxiliary Correlation fitting basis         ... NOT available
Auxiliary 'external' fitting basis          ... NOT available

Checking pre-screening integrals            ... done (  0.0 sec) Dimension = 339
Check shell pair data                       ... done (  0.0 sec)
Shell pair information
Shell pair cut-off parameter TPreSel        ...   2.5e-12
Total number of shell pairs                 ...     57630
Shell pairs after pre-screening             ...     23181
Total number of primitive shell pairs       ...    183333
Primitive shell pairs kept                  ...     51017
          la=0 lb=0:   5703 shell pairs
          la=1 lb=0:   6564 shell pairs
          la=1 lb=1:   1991 shell pairs
          la=2 lb=0:   3211 shell pairs
          la=2 lb=1:   2009 shell pairs
          la=2 lb=2:    541 shell pairs
          la=3 lb=0:   1541 shell pairs
          la=3 lb=1:    982 shell pairs
          la=3 lb=2:    504 shell pairs
          la=3 lb=3:    135 shell pairs

Calculating one electron integrals          ... done (  0.1 sec)
Calculating RI/J V-Matrix + Cholesky decomp.... done (  0.1 sec)
Calculating Nuclear repulsion               ... done (  0.0 sec) ENN=   2384.041245886886 Eh

Diagonalization of the overlap matrix:
Smallest eigenvalue                        ... 8.187e-05
Time for diagonalization                   ...    0.099 sec
Threshold for overlap eigenvalues          ... 1.000e-07
Number of eigenvalues below threshold      ... 0
Time for construction of square roots      ...    0.051 sec
Total time needed                          ...    0.155 sec

-------------------
DFT GRID GENERATION
-------------------

General Integration Accuracy     IntAcc      ... 4.388
Radial Grid Type                 RadialGrid  ... OptM3 with GC (2021)
Angular Grid (max. ang.)         AngularGrid ... 4 (Lebedev-302)
Angular grid pruning method      GridPruning ... 4 (adaptive)
Weight generation scheme         WeightScheme... mBecke (2022)
Basis function cutoff            BFCut       ... 1.0000e-11
Integration weight cutoff        WCut        ... 1.0000e-14
Partially contracted basis set               ... off
Rotationally invariant grid construction     ... off
Angular grids for H and He will be reduced by one unit

Total number of grid points                  ...   201638
Total number of batches                      ...     3168
Average number of points per batch           ...       63
Average number of grid points per atom       ...     5041

--------------------
COSX GRID GENERATION
--------------------

GRIDX 1
-------
General Integration Accuracy     IntAcc      ... 3.816
Radial Grid Type                 RadialGrid  ... OptM3 with GC (2021)
Angular Grid (max. ang.)         AngularGrid ... 1 (Lebedev-50)
Angular grid pruning method      GridPruning ... 4 (adaptive)
Weight generation scheme         WeightScheme... mBecke (2022)
Basis function cutoff            BFCut       ... 1.0000e-11
Integration weight cutoff        WCut        ... 1.0000e-14
Partially contracted basis set               ... on
Rotationally invariant grid construction     ... off
Angular grids for H and He will be reduced by one unit

Total number of grid points                  ...    27636
Total number of batches                      ...      239
Average number of points per batch           ...      115
Average number of grid points per atom       ...      691
UseSFitting                                  ... on

GRIDX 2
-------
General Integration Accuracy     IntAcc      ... 4.020
Radial Grid Type                 RadialGrid  ... OptM3 with GC (2021)
Angular Grid (max. ang.)         AngularGrid ... 2 (Lebedev-110)
Angular grid pruning method      GridPruning ... 4 (adaptive)
Weight generation scheme         WeightScheme... mBecke (2022)
Basis function cutoff            BFCut       ... 1.0000e-11
Integration weight cutoff        WCut        ... 1.0000e-14
Partially contracted basis set               ... on
Rotationally invariant grid construction     ... off
Angular grids for H and He will be reduced by one unit

Total number of grid points                  ...    56674
Total number of batches                      ...      466
Average number of points per batch           ...      121
Average number of grid points per atom       ...     1417
UseSFitting                                  ... on

GRIDX 3
-------
General Integration Accuracy     IntAcc      ... 4.338
Radial Grid Type                 RadialGrid  ... OptM3 with GC (2021)
Angular Grid (max. ang.)         AngularGrid ... 3 (Lebedev-194)
Angular grid pruning method      GridPruning ... 4 (adaptive)
Weight generation scheme         WeightScheme... mBecke (2022)
Basis function cutoff            BFCut       ... 1.0000e-11
Integration weight cutoff        WCut        ... 1.0000e-14
Partially contracted basis set               ... on
Rotationally invariant grid construction     ... off
Angular grids for H and He will be reduced by one unit

Total number of grid points                  ...   125770
Total number of batches                      ...     1004
Average number of points per batch           ...      125
Average number of grid points per atom       ...     3144
UseSFitting                                  ... on
Initializing property integral containers    ... done (  0.0 sec)

SHARK setup successfully completed in   2.4 seconds

Maximum memory used throughout the entire STARTUP-calculation: 74.8 MB


           ************************************************************
           *        Program running with 25 parallel MPI-processes    *
           *              working on a common directory               *
           ************************************************************
Occupation numbers will be reassigned to an Aufbau configuration
             **** ENERGY FILE WAS UPDATED (complex.en.tmp) ****
Finished Guess after   1.2 sec
Maximum memory used throughout the entire GUESS-calculation: 67.1 MB


           ************************************************************
           *        Program running with 25 parallel MPI-processes    *
           *              working on a common directory               *
           ************************************************************
----------------------------------------D-I-I-S--------------------------------------------
Iteration    Energy (Eh)           Delta-E    RMSDP     MaxDP     DIISErr   Damp  Time(sec)
-------------------------------------------------------------------------------------------
               ***  Starting incremental Fock matrix formation  ***
    1    -2250.4035834257351780     0.00e+00  8.74e-06  5.11e-04  3.37e-03  0.700   2.3
Warning: op=0 Small HOMO/LUMO gap (   0.011) - skipping pre-diagonalization
         Will do a full diagonalization
                              *** Initializing SOSCF ***
---------------------------------------S-O-S-C-F--------------------------------------
Iteration    Energy (Eh)           Delta-E    RMSDP     MaxDP     MaxGrad    Time(sec)
--------------------------------------------------------------------------------------
    2    -2250.4036785775292628    -9.52e-05  2.91e-05  1.71e-03  2.47e-03     1.9
               *** Restarting incremental Fock matrix formation ***
    3    -2250.4039375718243718    -2.59e-04  3.70e-06  1.58e-04  1.34e-04     2.2
    4    -2250.4039402942366905    -2.72e-06  2.50e-06  2.09e-04  5.03e-05     1.6
    5    -2250.4039401549002832     1.39e-07  1.19e-06  1.36e-04  7.01e-05     1.5
    6    -2250.4039406085707924    -4.54e-07  2.67e-07  2.56e-05  5.81e-06     1.4
