
                                 *****************
                                 * O   R   C   A *
                                 *****************

                                            #,                                       
                                            ###                                      
                                            ####                                     
                                            #####                                    
                                            ######                                   
                                           ########,                                 
                                     ,,################,,,,,                         
                               ,,#################################,,                 
                          ,,##########################################,,             
                       ,#########################################, ''#####,          
                    ,#############################################,,   '####,        
                  ,##################################################,,,,####,       
                ,###########''''           ''''###############################       
              ,#####''   ,,,,##########,,,,          '''####'''          '####       
            ,##' ,,,,###########################,,,                        '##       
           ' ,,###''''                  '''############,,,                           
         ,,##''                                '''############,,,,        ,,,,,,###''
      ,#''                                            '''#######################'''  
     '                                                          ''''####''''         
             ,#######,   #######,   ,#######,      ##                                
            ,#'     '#,  ##    ##  ,#'     '#,    #''#        ,####,   ,####,        
            ##       ##  ##   ,#'  ##            #'  '#       #'       #'  '#        
            ##       ##  #######   ##           ,######,      #####,   #    #        
            '#,     ,#'  ##    ##  '#,     ,#' ,#      #,     #,   #   #,  ,#        
             '#######'   ##     ##  '#######'  #'      '#     '####' # '####'        



                #########################################################
                #                        -***-                          #
                #          Department of theory and spectroscopy        #
                #                                                       #
                #                      Frank Neese                      #
                #                                                       #
                #     Directorship, Architecture, Infrastructure        #
                #                    SHARK, DRIVERS                     #
                #        Core code/Algorithms in most modules           #
                #                                                       #
                #        Max Planck Institute fuer Kohlenforschung      #
                #                Kaiser Wilhelm Platz 1                 #
                #                 D-45470 Muelheim/Ruhr                 #
                #                      Germany                          #
                #                                                       #
                #                  All rights reserved                  #
                #                        -***-                          #
                #########################################################


                         Program Version 6.0.1  -  RELEASE   -


 With contributions from (in alphabetic order):
[Max-Planck-Institut fuer Kohlenforschung]                               
  Daniel Aravena         : Magnetic Suceptibility                        
  Michael Atanasov       : Ab Initio Ligand Field Theory (pilot matlab implementation)
  Alexander A. Auer      : GIAO ZORA, VPT2 properties, NMR spectrum      
  Ute Becker             : All parallelization in ORCA, NUMFREQ, NUMCALC 
  Giovanni Bistoni       : ED, misc. LED, open-shell LED, HFLD           
  Martin Brehm           : Molecular dynamics                            
  Dmytro Bykov           : pre 5.0 version of the SCF Hessian            
  Marcos Casanova-Páez   : Triplet and SCS-CIS(D). UHF-(DLPNO)-IP/EA/STEOM-CCSD. UHF-CVS-IP/STEOM-CCSD   
  Vijay G. Chilkuri      : MRCI spin determinant printing, contributions to CSF-ICE 
  Pauline Colinet        : FMM embedding                                 
  Dipayan Datta          : RHF DLPNO-CCSD density                        
  Achintya Kumar Dutta   : EOM-CC, STEOM-CC                              
  Nicolas Foglia         : Exact transition moments, OPA infrastructure, MCD improvements    
  Dmitry Ganyushin       : Spin-Orbit,Spin-Spin,Magnetic field MRCI      
  Miquel Garcia-Rates    : C-PCM and meta-GGA Hessian, CCSD/C-PCM, Gaussian charge scheme 
  Tiago L. C. Gouveia    : GS-ROHF, GS-ROCIS                             
  Yang Guo               : DLPNO-NEVPT2, F12-NEVPT2, CIM, IAO-localization        
  Andreas Hansen         : Spin unrestricted coupled pair/coupled cluster methods 
  Ingolf Harden          : AUTO-CI MPn and infrastructure                
  Benjamin Helmich-Paris : MC-RPA, TRAH-(SCF,CASSCF), AVAS, COSX integrals, SCF dyn. polar. 
  Lee Huntington         : MR-EOM, pCC                                   
  Robert Izsak           : Overlap fitted RIJCOSX, COSX-SCS-MP3, EOM     
  Riya Kayal             : Wick's Theorem for AUTO-CI, AUTO-CI UHF-CCSDT 
  Emily Kempfer          : AUTO-CI, RHF CISDT and CCSDT                  
  Christian Kollmar      : KDIIS, OOCD, Brueckner-CCSD(T), CCSD density, CASPT2, CASPT2-K, improved NEVPT2 
  Axel Koslowski         : Symmetry handling                             
  Simone Kossmann        : meta-GGA functionals, TD-DFT gradient, OOMP2, (MP2 Hessian; deprecated post 5.0) 
  Lucas Lang             : DCDCAS                                        
  Marvin Lechner         : AUTO-CI (C++ implementation), FIC-MRCC        
  Spencer Leger          : CASSCF response                               
  Dagmar Lenk            : GEPOL surface, SMD, ORCA-2-JSON               
  Dimitrios Liakos       : Extrapolation schemes; Compound Job, initial MDCI parallelization 
  Dimitrios Manganas     : Further ROCIS development; embedding schemes. LFT, Crystal Embedding 
  Dimitrios Pantazis     : SARC Basis sets                               
  Anastasios Papadopoulos: AUTO-CI, single reference methods and gradients 
  Taras Petrenko         : pre 6.0 DFT Hessian and TD-DFT gradient, (ASA, deprecated), ECA, 1-Electron XAS/XES, NRVS 
  Peter Pinski           : DLPNO-MP2, DLPNO-MP2 Gradient                 
  Christoph Reimann      : Effective Core Potentials                     
  Marius Retegan         : Local ZFS, SOC                                
  Christoph Riplinger    : Optimizer, TS searches, QM/MM, DLPNO-CCSD(T), (RO)-DLPNO pert. Triples 
  Michael Roemelt        : Original ROCIS implementation                 
  Masaaki Saitow         : Open-shell DLPNO-CCSD energy and density      
  Barbara Sandhoefer     : DKH picture change effects                    
  Kantharuban Sivalingam : CASSCF convergence/infrastructure, NEVPT2 and variants, FIC-MRCI 
  Bernardo de Souza      : ESD, SOC TD-DFT                               
  Georgi L. Stoychev     : AutoAux, RI-MP2 NMR, DLPNO-MP2 response, X2C  
  Van Anh Tran           : RI-MP2 g-tensors                              
  Willem Van den Heuvel  : Paramagnetic NMR                              
  Zikuan Wang            : NOTCH, Electric field optimization            
  Frank Wennmohs         : Technical directorship and infrastructure     
  Hang Xu                : AUTO-CI-Response properties                   
                                                                         
[FACCTs GmbH]                                                            
  Markus Bursch, Miquel Garcia-Rates, Christoph Riplinger, Bernardo de Souza, Georgi L. Stoychev 
                                                                 
  APM, Basis sets (HGBS, AHGBS, def-TZVP (Ac-Lr), def2-XVPD (La-Lu)), CI-OPT, improved COSX, DLPNO-Multilevel,           
  DOCKER, DRACO, updates on ESD, GOAT, IRC, LR-CPCM, MBIS, meta-GGA TD-DFT gradient, ML-optimized integration grids, 
  MM, NACMEs, nearIR, NEB, NEB-TS, NL-DFT gradient (VV10), 2- and 3-layer-ONIOM, interface openCOSMO-RS, QMMM,   
  Crystal-QMMM, SF, symmetry and pop. for TD-DFT, r2SCAN hybrids, SOLVATOR                                   
                                                                         
[Other institutions]                                                     
  V. Asgeirsson          : NEB                                           
  Christoph Bannwarth    : sTDA-DFT, sTD-DFT, PBEh-3c, B97-3c, D3        
  Sebastian Ehlert       : rSCAN, r2SCAN, r2SCAN-3c, D4, dhf basis sets  
  Marvin Friede          : D4 for Fr, Ra, Ac-Lr                          
  Lars Goerigk           : TD-DFT with DH, B97 family of functionals     
  Stefan Grimme          : VdW corrections, initial TS optimization, DFT functionals, gCP, sTDA/sTD-DF 
  Waldemar Hujo          : DFT-NL                                        
  H. Jonsson             : NEB                                           
  Holger Kruse           : gCP                                           
  Marcel Mueller         : wB97X-3c, vDZP basis set                      
  Hagen Neugebauer       : wr2SCAN                                       
  Tobias Risthaus        : range-separated hybrid DFT                    
  Lukas Wittmann         : regularized MP2, r2SCAN double-hybrids, wr2SCAN        
                                                                         
We gratefully acknowledge several colleagues who have allowed us to      
interface, adapt or use parts of their codes:                            
  Ed Valeev, F. Pavosevic, A. Kumar             : LibInt (2-el integral package), F12 methods 
  Garnet Chan, S. Sharma, J. Yang, R. Olivares  : DMRG                   
  Ulf Ekstrom                                   : XCFun DFT Library      
  Mihaly Kallay                                 : mrcc  (arbitrary order and MRCC methods)
  Frank Weinhold                                : gennbo (NPA and NBO analysis)           
  Simon Mueller                                 : openCOSMO-RS                            
  Christopher J. Cramer and Donald G. Truhlar   : smd solvation model                     
  S Lehtola, MJT Oliveira, MAL Marques          : LibXC Library                           
  Liviu Ungur et al                             : ANISO software                          


 Your calculation uses the libint2 library for the computation of 2-el integrals
 For citations please refer to: http://libint.valeyev.net

 Your ORCA version has been built with support for libXC version: 6.2.2
 For citations please refer to: https://libxc.gitlab.io

 This ORCA versions uses:
   CBLAS   interface :  Fast vector & matrix operations
   LAPACKE interface :  Fast linear algebra routines
   SCALAPACK package :  Parallel linear algebra routines
   Shared memory     :  Shared parallel matrices
   BLAS/LAPACK       :  OpenBLAS 0.3.27  USE64BITINT DYNAMIC_ARCH NO_AFFINITY SkylakeX SINGLE_THREADED
        Core in use  :  SkylakeX
   Copyright (c) 2011-2014, The OpenBLAS Project


NOTE: MaxCore=5000 MB was set to SCF,MP2,MDCI,CIPSI,MRCI and CIS
      => If you want to overwrite this, your respective input block should be placed after the MaxCore statement
Your calculation utilizes the atom-pairwise dispersion correction
based on EEQ partial charges (D4)


Warning: RI is on but no J-basis has been assigned. Assigning Def2/J (nothing to worry about!)
================================================================================

----- Orbital basis set information -----
Your calculation utilizes the basis: def2-TZVP
   F. Weigend and R. Ahlrichs, Phys. Chem. Chem. Phys. 7, 3297 (2005).

----- AuxJ basis set information -----
Your calculation utilizes the auxiliary basis: def2/J
   F. Weigend, Phys. Chem. Chem. Phys. 8, 1057 (2006).

================================================================================
                                        WARNINGS
                       Please study these warnings very carefully!
================================================================================

WARNING: Old DensityContainer found on disk!
         Will remove this file - 
         If you want to keep old densities, please start your calculation with a different basename. 


WARNING: Geometry Optimization
  ===> : Switching off AutoStart
         For restart on a previous wavefunction, please use MOREAD

================================================================================
                                       INPUT FILE
================================================================================
NAME = TFS.inp
|  1> ! Opt B3LYP D4 def2-TZVP TightSCF TightOpt
|  2> 
|  3> %maxcore 5000
|  4> 
|  5> %pal
|  6> nprocs 30
|  7> end
|  8> 
|  9> * xyz -1 1
| 10> S         -1.49180       -0.78220        0.00440
| 11> S          1.49200       -0.78230        0.00440
| 12> F         -2.54140        1.24590       -1.22250
| 13> F         -3.83500        0.28320        0.24670
| 14> F         -2.18450        1.54580        0.91030
| 15> F          3.83440        0.28390        0.25020
| 16> F          2.54400        1.24370       -1.22350
| 17> F          2.18230        1.54740        0.90790
| 18> O         -1.45900       -1.28340        1.36400
| 19> O         -1.86460       -1.63480       -1.10670
| 20> O          1.86460       -1.63500       -1.10660
| 21> O          1.45900       -1.28340        1.36400
| 22> N          0.00000       -0.00520       -0.35940
| 23> C         -2.55130        0.62810       -0.01650
| 24> C          2.55140        0.62820       -0.01660
| 25> *
| 26> 
| 27>                          ****END OF INPUT****
================================================================================

                       *****************************
                       * Geometry Optimization Run *
                       *****************************

Geometry optimization settings:
Update method            Update   .... BFGS
Choice of coordinates    CoordSys .... (2022) Redundant Internals
Initial Hessian          InHess   .... Almloef's Model
Max. no of cycles        MaxIter  .... 50

Convergence Tolerances:
Energy Change            TolE     ....  1.0000e-06 Eh
Max. Gradient            TolMAXG  ....  1.0000e-04 Eh/bohr
RMS Gradient             TolRMSG  ....  3.0000e-05 Eh/bohr
Max. Displacement        TolMAXD  ....  1.0000e-03 bohr
RMS Displacement         TolRMSD  ....  6.0000e-04 bohr
Strict Convergence                .... False

------------------------------------------------------------------------------
                        ORCA OPTIMIZATION COORDINATE SETUP
------------------------------------------------------------------------------

The optimization will be done in redundant internal coordinates (2022)
Making redundant internal coordinates   ...  (2022 redundants) done
Evaluating the initial hessian          ...  (Almloef) done
Evaluating the coordinates              ...  done
Calculating the B-matrix                .... done
Calculating the G-matrix                .... done
Diagonalizing the G-matrix              .... done
Small eigenvalue found = 1.420e-02
The first mode is                       ....   18
The number of degrees of freedom        ....   39

    -----------------------------------------------------------------
                    Redundant Internal Coordinates


    -----------------------------------------------------------------
         Definition                    Initial Value    Approx d2E/dq
    -----------------------------------------------------------------
      1. B(O   8,S   0)                  1.4494         1.212993   
      2. B(O   9,S   0)                  1.4493         1.213515   
      3. B(O  10,S   1)                  1.4492         1.213824   
      4. B(O  11,S   1)                  1.4494         1.213127   
      5. B(N  12,S   1)                  1.7211         0.447035   
      6. B(N  12,S   0)                  1.7209         0.447394   
      7. B(C  13,S   0)                  1.7641         0.426295   
      8. B(C  13,F   4)                  1.3549         0.591580   
      9. B(C  13,F   3)                  1.3550         0.591226   
     10. B(C  13,F   2)                  1.3551         0.591150   
     11. B(C  14,F   7)                  1.3549         0.591428   
     12. B(C  14,F   6)                  1.3548         0.591718   
     13. B(C  14,F   5)                  1.3549         0.591468   
     14. B(C  14,S   1)                  1.7642         0.426137   
     15. A(O   9,S   0,C  13)          107.8627         0.508737   
     16. A(O   8,S   0,O   9)          121.4356         0.617104   
     17. A(O   8,S   0,N  12)          109.5611         0.510342   
     18. A(N  12,S   0,C  13)           99.0430         0.423883   
     19. A(O   8,S   0,C  13)          107.5270         0.508696   
     20. A(O   9,S   0,N  12)          109.0581         0.510383   
     21. A(O  10,S   1,N  12)          109.0560         0.510331   
     22. A(O  10,S   1,O  11)          121.4369         0.617148   
     23. A(O  11,S   1,C  14)          107.5335         0.508672   
     24. A(O  11,S   1,N  12)          109.5508         0.510276   
     25. A(O  10,S   1,C  14)          107.8732         0.508726   
     26. A(N  12,S   1,C  14)           99.0362         0.423794   
     27. A(S   0,N  12,S   1)          120.1933         0.425135   
     28. A(F   2,C  13,F   4)          107.3383         0.417523   
     29. A(S   0,C  13,F   4)          111.7649         0.420066   
     30. A(F   2,C  13,F   3)          107.2078         0.417478   
     31. A(S   0,C  13,F   3)          111.2965         0.420021   
     32. A(S   0,C  13,F   2)          111.7554         0.420012   
     33. A(F   3,C  13,F   4)          107.2181         0.417532   
     34. A(F   6,C  14,F   7)          107.3456         0.417575   
     35. A(F   5,C  14,F   7)          107.2166         0.417543   
     36. A(S   1,C  14,F   7)          111.7586         0.420019   
     37. A(F   5,C  14,F   6)          107.2194         0.417580   
     38. A(S   1,C  14,F   6)          111.7499         0.420056   
     39. A(S   1,C  14,F   5)          111.2920         0.420024   
     40. D(S   0,N  12,S   1,O  11)    -48.2425         0.005226   
     41. D(S   1,N  12,S   0,O   8)     48.2427         0.005232   
     42. D(S   0,N  12,S   1,C  14)   -160.5878         0.005226   
     43. D(S   1,N  12,S   0,C  13)    160.5871         0.005232   
     44. D(S   1,N  12,S   0,O   9)    -86.8566         0.005232   
     45. D(S   0,N  12,S   1,O  10)     86.8480         0.005226   
     46. D(F   2,C  13,S   0,O   8)    173.9433         0.004970   
     47. D(F   3,C  13,S   0,N  12)    179.8327         0.004970   
     48. D(F   3,C  13,S   0,O   9)     66.3374         0.004970   
     49. D(F   3,C  13,S   0,O   8)    -66.2264         0.004970   
     50. D(F   2,C  13,S   0,N  12)     60.0024         0.004970   
     51. D(F   2,C  13,S   0,O   9)    -53.4929         0.004970   
     52. D(F   5,C  14,S   1,N  12)    179.9968         0.004968   
     53. D(F   5,C  14,S   1,O  11)     66.0679         0.004968   
     54. D(F   5,C  14,S   1,O  10)    -66.5099         0.004968   
     55. D(F   6,C  14,S   1,N  12)    -60.1650         0.004968   
     56. D(F   6,C  14,S   1,O  11)   -174.0938         0.004968   
     57. D(F   6,C  14,S   1,O  10)     53.3284         0.004968   
    -----------------------------------------------------------------

Number of atoms                         .... 15
Number of degrees of freedom            .... 57


         *************************************************************
         *                GEOMETRY OPTIMIZATION CYCLE   1            *
         *************************************************************
---------------------------------
CARTESIAN COORDINATES (ANGSTROEM)
---------------------------------
  S     -1.491800   -0.782200    0.004400
  S      1.492000   -0.782300    0.004400
  F     -2.541400    1.245900   -1.222500
  F     -3.835000    0.283200    0.246700
  F     -2.184500    1.545800    0.910300
  F      3.834400    0.283900    0.250200
  F      2.544000    1.243700   -1.223500
  F      2.182300    1.547400    0.907900
  O     -1.459000   -1.283400    1.364000
  O     -1.864600   -1.634800   -1.106700
  O      1.864600   -1.635000   -1.106600
  O      1.459000   -1.283400    1.364000
  N      0.000000   -0.005200   -0.359400
  C     -2.551300    0.628100   -0.016500
  C      2.551400    0.628200   -0.016600

----------------------------
CARTESIAN COORDINATES (A.U.)
----------------------------
  NO LB      ZA    FRAG     MASS         X           Y           Z
   0 S    16.0000    0    32.060   -2.819093   -1.478144    0.008315
   1 S    16.0000    0    32.060    2.819471   -1.478333    0.008315
   2 F     9.0000    0    18.998   -4.802550    2.354410   -2.310190
   3 F     9.0000    0    18.998   -7.247100    0.535170    0.466195
   4 F     9.0000    0    18.998   -4.128107    2.921139    1.720218
   5 F     9.0000    0    18.998    7.245966    0.536493    0.472809
   6 F     9.0000    0    18.998    4.807463    2.350252   -2.312080
   7 F     9.0000    0    18.998    4.123949    2.924162    1.715682
   8 O     8.0000    0    15.999   -2.757110   -2.425275    2.577586
   9 O     8.0000    0    15.999   -3.523583   -3.089324   -2.091360
  10 O     8.0000    0    15.999    3.523583   -3.089702   -2.091171
  11 O     8.0000    0    15.999    2.757110   -2.425275    2.577586
  12 N     7.0000    0    14.007    0.000000   -0.009827   -0.679168
  13 C     6.0000    0    12.011   -4.821258    1.186937   -0.031180
  14 C     6.0000    0    12.011    4.821447    1.187126   -0.031369

--------------------------------
INTERNAL COORDINATES (ANGSTROEM)
--------------------------------
 S      0   0   0     0.000000000000     0.00000000     0.00000000
 S      1   0   0     2.983800001676     0.00000000     0.00000000
 F      1   2   0     2.592322005462   113.88575007     0.00000000
 F      3   1   2     2.181453847781    64.91801211   202.58334140
 F      4   3   1     2.181438509333    60.05174693    74.54514570
 F      2   1   3     2.585350622256   154.96022126    44.15343352
 F      6   2   1     2.181316091262    65.24427278   303.50938754
 F      6   2   1     2.181383952907    65.25020708    10.38451581
 O      1   2   3     1.449410031703    88.70262753   218.59194603
 O      1   2   3     1.449292865504   104.90452881    96.32885162
 O      2   1   3     1.449223602485   104.89941353   263.66622299
 O      2   1   3     1.449379995032    88.69602061   141.40442570
 N      1   2   3     1.720914489450    29.90542404   353.91579816
 C      5   4   3     1.354870388635    36.39350500   321.63583782
 C      7   6   2     1.354807226140    36.39210295    36.19633709

---------------------------
INTERNAL COORDINATES (A.U.)
---------------------------
 S      0   0   0     0.000000000000     0.00000000     0.00000000
 S      1   0   0     5.638564841561     0.00000000     0.00000000
 F      1   2   0     4.898778641260   113.88575007     0.00000000
 F      3   1   2     4.122350346095    64.91801211   202.58334140
 F      4   3   1     4.122321360628    60.05174693    74.54514570
 F      2   1   3     4.885604636227   154.96022126    44.15343352
 F      6   2   1     4.122090024001    65.24427278   303.50938754
 F      6   2   1     4.122218263925    65.25020708    10.38451581
 O      1   2   3     2.738988015676    88.70262753   218.59194603
 O      1   2   3     2.738766603648   104.90452881    96.32885162
 O      2   1   3     2.738635715512   104.89941353   263.66622299
 O      2   1   3     2.738931254595    88.69602061   141.40442570
 N      1   2   3     3.252057084958    29.90542404   353.91579816
 C      5   4   3     2.560333981480    36.39350500   321.63583782
 C      7   6   2     2.560214621661    36.39210295    36.19633709

---------------------
BASIS SET INFORMATION
---------------------
There are 5 groups of distinct atoms

 Group   1 Type S   : 14s9p3d1f contracted to 5s5p2d1f pattern {73211/51111/21/1}
 Group   2 Type F   : 11s6p2d1f contracted to 5s3p2d1f pattern {62111/411/11/1}
 Group   3 Type O   : 11s6p2d1f contracted to 5s3p2d1f pattern {62111/411/11/1}
 Group   4 Type N   : 11s6p2d1f contracted to 5s3p2d1f pattern {62111/411/11/1}
 Group   5 Type C   : 11s6p2d1f contracted to 5s3p2d1f pattern {62111/411/11/1}

Atom   0S    basis set group =>   1
Atom   1S    basis set group =>   1
Atom   2F    basis set group =>   2
Atom   3F    basis set group =>   2
Atom   4F    basis set group =>   2
Atom   5F    basis set group =>   2
Atom   6F    basis set group =>   2
Atom   7F    basis set group =>   2
Atom   8O    basis set group =>   3
Atom   9O    basis set group =>   3
Atom  10O    basis set group =>   3
Atom  11O    basis set group =>   3
Atom  12N    basis set group =>   4
Atom  13C    basis set group =>   5
Atom  14C    basis set group =>   5
---------------------------------
AUXILIARY/J BASIS SET INFORMATION
---------------------------------
There are 5 groups of distinct atoms

 Group   1 Type S   : 14s5p5d2f1g contracted to 8s4p3d1f1g pattern {71111111/2111/311/2/1}
 Group   2 Type F   : 12s5p4d2f1g contracted to 6s4p3d1f1g pattern {711111/2111/211/2/1}
 Group   3 Type O   : 12s5p4d2f1g contracted to 6s4p3d1f1g pattern {711111/2111/211/2/1}
 Group   4 Type N   : 12s5p4d2f1g contracted to 6s4p3d1f1g pattern {711111/2111/211/2/1}
 Group   5 Type C   : 12s5p4d2f1g contracted to 6s4p3d1f1g pattern {711111/2111/211/2/1}

Atom   0S    basis set group =>   1
Atom   1S    basis set group =>   1
Atom   2F    basis set group =>   2
Atom   3F    basis set group =>   2
Atom   4F    basis set group =>   2
Atom   5F    basis set group =>   2
Atom   6F    basis set group =>   2
Atom   7F    basis set group =>   2
Atom   8O    basis set group =>   3
Atom   9O    basis set group =>   3
Atom  10O    basis set group =>   3
Atom  11O    basis set group =>   3
Atom  12N    basis set group =>   4
Atom  13C    basis set group =>   5
Atom  14C    basis set group =>   5
--------------------------------------------------------------------------
WARNING: There was an error initializing an OpenFabrics device.

  Local host:   ga00
  Local device: mlx5_0
--------------------------------------------------------------------------


           ************************************************************
           *        Program running with 30 parallel MPI-processes    *
           *              working on a common directory               *
           ************************************************************
------------------------------------------------------------------------------
                             ORCA STARTUP CALCULATIONS
                           -- RI-GTO INTEGRALS CHOSEN --
------------------------------------------------------------------------------
------------------------------------------------------------------------------
                   ___                                                        
                  /   \      - P O W E R E D   B Y -                         
                 /     \                                                     
                 |  |  |   _    _      __       _____    __    __             
                 |  |  |  | |  | |    /  \     |  _  \  |  |  /  |          
                  \  \/   | |  | |   /    \    | | | |  |  | /  /          
                 / \  \   | |__| |  /  /\  \   | |_| |  |  |/  /          
                |  |  |   |  __  | /  /__\  \  |    /   |      \           
                |  |  |   | |  | | |   __   |  |    \   |  |\   \          
                \     /   | |  | | |  |  |  |  | |\  \  |  | \   \       
                 \___/    |_|  |_| |__|  |__|  |_| \__\ |__|  \__/        
                                                                              
                      - O R C A' S   B I G   F R I E N D -                    
                                      &                                       
                       - I N T E G R A L  F E E D E R -                       
                                                                              
 v1 FN, 2020, v2 2021, v3 2022-2024                                           
------------------------------------------------------------------------------


----------------------
SHARK INTEGRAL PACKAGE
----------------------

Number of atoms                             ...     15
Number of basis functions                   ...    477
Number of shells                            ...    169
Maximum angular momentum                    ...      3
Integral batch strategy                     ... SHARK/LIBINT Hybrid
RI-J (if used) integral strategy            ... SPLIT-RIJ (Revised 2003 algorithm where possible)
Printlevel                                  ...      1
Contraction scheme used                     ... SEGMENTED contraction
Prescreening option                         ... SCHWARTZ
   Thresh                                   ... 2.500e-11
   Tcut                                     ... 2.500e-12
   Tpresel                                  ... 2.500e-12 
Coulomb Range Separation                    ... NOT USED
Exchange Range Separation                   ... NOT USED
Multipole approximations                    ... NOT USED
Finite Nucleus Model                        ... NOT USED
CABS basis                                  ... NOT available
Auxiliary Coulomb fitting basis             ... AVAILABLE
   # of basis functions in Aux-J            ...    739
   # of shells in Aux-J                     ...    229
   Maximum angular momentum in Aux-J        ...      4
Auxiliary J/K fitting basis                 ... NOT available
Auxiliary Correlation fitting basis         ... NOT available
Auxiliary 'external' fitting basis          ... NOT available

Checking pre-screening integrals            ... done (  0.0 sec) Dimension = 169
Check shell pair data                       ... done (  0.0 sec)
Shell pair information
Shell pair cut-off parameter TPreSel        ...   2.5e-12
Total number of shell pairs                 ...     14365
Shell pairs after pre-screening             ...     10296
Total number of primitive shell pairs       ...     49813
Primitive shell pairs kept                  ...     23497
          la=0 lb=0:   1815 shell pairs
          la=1 lb=0:   2805 shell pairs
          la=1 lb=1:   1056 shell pairs
          la=2 lb=0:   1484 shell pairs
          la=2 lb=1:   1156 shell pairs
          la=2 lb=2:    331 shell pairs
          la=3 lb=0:    703 shell pairs
          la=3 lb=1:    565 shell pairs
          la=3 lb=2:    302 shell pairs
          la=3 lb=3:     79 shell pairs

Calculating one electron integrals          ... done (  0.0 sec)
Calculating RI/J V-Matrix + Cholesky decomp.... done (  0.0 sec)
Calculating Nuclear repulsion               ... done (  0.0 sec) ENN=   1553.877872121747 Eh

Diagonalization of the overlap matrix:
Smallest eigenvalue                        ... 8.280e-04
Time for diagonalization                   ...    0.022 sec
Threshold for overlap eigenvalues          ... 1.000e-07
Number of eigenvalues below threshold      ... 0
Time for construction of square roots      ...    0.011 sec
Total time needed                          ...    0.036 sec

-------------------
DFT GRID GENERATION
-------------------

General Integration Accuracy     IntAcc      ... 4.388
Radial Grid Type                 RadialGrid  ... OptM3 with GC (2021)
Angular Grid (max. ang.)         AngularGrid ... 4 (Lebedev-302)
Angular grid pruning method      GridPruning ... 4 (adaptive)
Weight generation scheme         WeightScheme... mBecke (2022)
Basis function cutoff            BFCut       ... 1.0000e-11
Integration weight cutoff        WCut        ... 1.0000e-14
Partially contracted basis set               ... off
Rotationally invariant grid construction     ... off
Angular grids for H and He will be reduced by one unit

Total number of grid points                  ...    93758
Total number of batches                      ...     1472
Average number of points per batch           ...       63
Average number of grid points per atom       ...     6251

--------------------
COSX GRID GENERATION
--------------------

GRIDX 1
-------
General Integration Accuracy     IntAcc      ... 3.816
Radial Grid Type                 RadialGrid  ... OptM3 with GC (2021)
Angular Grid (max. ang.)         AngularGrid ... 1 (Lebedev-50)
Angular grid pruning method      GridPruning ... 4 (adaptive)
Weight generation scheme         WeightScheme... mBecke (2022)
Basis function cutoff            BFCut       ... 1.0000e-11
Integration weight cutoff        WCut        ... 1.0000e-14
Partially contracted basis set               ... on
Rotationally invariant grid construction     ... off
Angular grids for H and He will be reduced by one unit

Total number of grid points                  ...    13864
Total number of batches                      ...      114
Average number of points per batch           ...      121
Average number of grid points per atom       ...      924
UseSFitting                                  ... on

GRIDX 2
-------
General Integration Accuracy     IntAcc      ... 4.020
Radial Grid Type                 RadialGrid  ... OptM3 with GC (2021)
Angular Grid (max. ang.)         AngularGrid ... 2 (Lebedev-110)
Angular grid pruning method      GridPruning ... 4 (adaptive)
Weight generation scheme         WeightScheme... mBecke (2022)
Basis function cutoff            BFCut       ... 1.0000e-11
Integration weight cutoff        WCut        ... 1.0000e-14
Partially contracted basis set               ... on
Rotationally invariant grid construction     ... off
Angular grids for H and He will be reduced by one unit

Total number of grid points                  ...    27710
Total number of batches                      ...      226
Average number of points per batch           ...      122
Average number of grid points per atom       ...     1847
UseSFitting                                  ... on

GRIDX 3
-------
General Integration Accuracy     IntAcc      ... 4.338
Radial Grid Type                 RadialGrid  ... OptM3 with GC (2021)
Angular Grid (max. ang.)         AngularGrid ... 3 (Lebedev-194)
Angular grid pruning method      GridPruning ... 4 (adaptive)
Weight generation scheme         WeightScheme... mBecke (2022)
Basis function cutoff            BFCut       ... 1.0000e-11
Integration weight cutoff        WCut        ... 1.0000e-14
Partially contracted basis set               ... on
Rotationally invariant grid construction     ... off
Angular grids for H and He will be reduced by one unit

Total number of grid points                  ...    62603
Total number of batches                      ...      496
Average number of points per batch           ...      126
Average number of grid points per atom       ...     4174
UseSFitting                                  ... on
Initializing property integral containers    ... done (  0.0 sec)

SHARK setup successfully completed in   1.0 seconds

Maximum memory used throughout the entire STARTUP-calculation: 32.8 MB
[ga00:440027] 29 more processes have sent help message help-mpi-btl-openib.txt / error in device init
[ga00:440027] Set MCA parameter "orte_base_help_aggregate" to 0 to see all help / error messages
--------------------------------------------------------------------------
WARNING: There was an error initializing an OpenFabrics device.

  Local host:   ga00
  Local device: mlx5_0
--------------------------------------------------------------------------


           ************************************************************
           *        Program running with 30 parallel MPI-processes    *
           *              working on a common directory               *
           ************************************************************
-------------------------------------------------------------------------------
                                 ORCA GUESS
                   Start orbitals & Density for SCF / CASSCF
-------------------------------------------------------------------------------

------------
SCF SETTINGS
------------
Hamiltonian:
 Density Functional     Method          .... DFT(GTOs)
 Exchange Functional    Exchange        .... B88
   X-Alpha parameter    XAlpha          ....  0.666667
   Becke's b parameter  XBeta           ....  0.004200
 Correlation Functional Correlation     .... LYP
 LDA part of GGA corr.  LDAOpt          .... VWN-5
 Gradients option       PostSCFGGA      .... off
 Hybrid DFT is turned on
   Fraction HF Exchange ScalHFX         ....  0.200000
   Scaling of DF-GGA-X  ScalDFX         ....  0.720000
   Scaling of DF-GGA-C  ScalDFC         ....  0.810000
   Scaling of DF-LDA-C  ScalLDAC        ....  1.000000
   Perturbative correction              ....  0.000000
   NL short-range parameter             ....  4.800000
 RI-approximation to the Coulomb term is turned on
   Number of AuxJ basis functions       .... 739
   RIJ-COSX (HFX calculated with COS-X)).... on


General Settings:
 Integral files         IntName         .... TFS
 Hartree-Fock type      HFTyp           .... RHF
 Total Charge           Charge          ....   -1
 Multiplicity           Mult            ....    1
 Number of Electrons    NEL             ....  138
 Basis Dimension        Dim             ....  477
 Nuclear Repulsion      ENuc            ....   1553.8778721217 Eh

Convergence Acceleration:
 AO-DIIS                CNVDIIS         .... on
   Start iteration      DIISMaxIt       ....    12
   Startup error        DIISStart       ....  0.200000
   # of expansion vecs  DIISMaxEq       ....     5
   Bias factor          DIISBfac        ....   1.050
   Max. coefficient     DIISMaxC        ....  10.000
 MO-DIIS                CNVKDIIS        .... off
 Trust-Rad. Augm. Hess. CNVTRAH         .... auto
   Auto Start mean grad. ratio tolernc. ....  1.125000
   Auto Start start iteration           ....    50
   Auto Start num. interpolation iter.  ....    10
   Max. Number of Micro iterations      ....    24
   Max. Number of Macro iterations      .... Maxiter - #DIIS iter
   Number of Davidson start vectors     ....     2
   Converg. threshold    (grad. norm)   ....   1.000e-05
   Grad. Scal. Fac. for Micro threshold ....   0.100
   Minimum threshold for Micro iter.    ....   1.000e-02
   NR start threshold (gradient norm)   ....   1.000e-04
   Initial trust radius                 ....   0.400
   Minimum AH scaling param. (alpha)    ....   1.000
   Maximum AH scaling param. (alpha)    .... 1000.000
   Quad. conv. algorithm                .... NR
   White noise on init. David. guess    .... on
   Maximum white noise                  ....   0.010
   Pseudo random numbers                .... off
   Inactive MOs                         .... canonical
   Orbital update algorithm             .... Taylor
   Preconditioner                       .... Diag
   Full preconditioner red. dimension   ....   250
 SOSCF                  CNVSOSCF        .... on
   Start iteration      SOSCFMaxIt      ....   150
   Startup grad/error   SOSCFStart      ....  0.003300
   Hessian update       SOSCFHessUp     .... L-BFGS
 Level Shifting         CNVShift        .... on
   Level shift para.    LevelShift      ....    0.2500
   Turn off err/grad.   ShiftErr        ....    0.0010
 Zerner damping         CNVZerner       .... off
 Static damping         CNVDamp         .... on
   Fraction old density DampFac         ....    0.7000
   Max. Damping (<1)    DampMax         ....    0.9800
   Min. Damping (>=0)   DampMin         ....    0.0000
   Turn off err/grad.   DampErr         ....    0.1000

SCF Procedure:
 Maximum # iterations   MaxIter         ....   125
 SCF integral mode      SCFMode         .... Direct
   Integral package                     .... SHARK and LIBINT hybrid scheme
 Reset frequency        DirectResetFreq ....    20
 Integral Threshold     Thresh          ....  2.500e-11 Eh
 Primitive CutOff       TCut            ....  2.500e-12 Eh

Convergence Tolerance:
 Convergence Check Mode ConvCheckMode   .... Total+1el-Energy
 Convergence forced     ConvForced      .... 0
 Energy Change          TolE            ....  1.000e-08 Eh
 1-El. energy change                    ....  1.000e-05 Eh
 Orbital Gradient       TolG            ....  1.000e-05
 Orbital Rotation angle TolX            ....  1.000e-05
 DIIS Error             TolErr          ....  5.000e-07

------------------------------
INITIAL GUESS: MODEL POTENTIAL
------------------------------
Loading Hartree-Fock densities                     ... done
Calculating cut-offs                               ... done
Initializing the effective Hamiltonian             ... done
Setting up the integral package (SHARK)            ... done
Starting the Coulomb interaction                   ... done (   0.0 sec)
Making the grid                                    ... done (   0.1 sec)
Mapping shells                                     ... done
Starting the XC term evaluation                    ... done (   0.0 sec)
  promolecular density results
     # of electrons  =    137.002224930
     EX              =   -160.194530373
     EC              =     -5.302568590
     EX+EC           =   -165.497098963
Transforming the Hamiltonian                       ... done (   0.0 sec)
Diagonalizing the Hamiltonian                      ... done (   0.0 sec)
Back transforming the eigenvectors                 ... done (   0.0 sec)
Now organizing SCF variables                       ... done
                      ------------------
                      INITIAL GUESS DONE (   0.2 sec)
                      ------------------
             **** ENERGY FILE WAS UPDATED (TFS.en.tmp) ****
Finished Guess after   0.9 sec
Maximum memory used throughout the entire GUESS-calculation: 24.4 MB
[ga00:440175] 29 more processes have sent help message help-mpi-btl-openib.txt / error in device init
[ga00:440175] Set MCA parameter "orte_base_help_aggregate" to 0 to see all help / error messages
--------------------------------------------------------------------------
WARNING: There was an error initializing an OpenFabrics device.

  Local host:   ga00
  Local device: mlx5_0
--------------------------------------------------------------------------


           ************************************************************
           *        Program running with 30 parallel MPI-processes    *
           *              working on a common directory               *
           ************************************************************

-------------------------------------------------------------------------------------------
                                      ORCA LEAN-SCF
                              memory conserving SCF solver
-------------------------------------------------------------------------------------------

----------------------------------------D-I-I-S--------------------------------------------
Iteration    Energy (Eh)           Delta-E    RMSDP     MaxDP     DIISErr   Damp  Time(sec)
-------------------------------------------------------------------------------------------
               ***  Starting incremental Fock matrix formation  ***
    1    -1826.4878349539076225     0.00e+00  1.67e-03  1.30e-01  3.16e-01  0.700   0.9
    2    -1826.8953236841407488    -4.07e-01  8.95e-04  4.17e-02  1.24e-01  0.700   0.6
                               ***Turning on AO-DIIS***
    3    -1827.0016988144398056    -1.06e-01  3.14e-04  1.64e-02  2.99e-02  0.700   0.6
    4    -1827.0825576804072625    -8.09e-02  4.58e-04  3.92e-02  1.38e-02  0.000   0.5
    5    -1827.2808656266311118    -1.98e-01  1.90e-04  9.97e-03  8.71e-03  0.000   0.6
    6    -1827.2817596837066958    -8.94e-04  6.57e-05  2.70e-03  4.57e-03  0.000   0.5
                              *** Initializing SOSCF ***
---------------------------------------S-O-S-C-F--------------------------------------
Iteration    Energy (Eh)           Delta-E    RMSDP     MaxDP     MaxGrad    Time(sec)
--------------------------------------------------------------------------------------
    7    -1827.2818582445911488    -9.86e-05  2.43e-05  1.18e-03  3.23e-03     0.6
               *** Restarting incremental Fock matrix formation ***
[ga00:440311] 29 more processes have sent help message help-mpi-btl-openib.txt / error in device init
[ga00:440311] Set MCA parameter "orte_base_help_aggregate" to 0 to see all help / error messages
    8    -1827.2818818628875306    -2.36e-05  2.08e-05  8.41e-04  4.38e-04     0.8
    9    -1827.2818850015082717    -3.14e-06  1.36e-05  4.11e-04  2.36e-04     0.6
   10    -1827.2818864663117893    -1.46e-06  9.69e-06  3.15e-04  1.29e-04     0.6
   11    -1827.2818877692493515    -1.30e-06  1.85e-06  7.28e-05  3.57e-05     0.6
   12    -1827.2818877613021868     7.95e-09  1.29e-06  5.00e-05  4.37e-05     0.5
                 **** Energy Check signals convergence ****

               *****************************************************
               *                     SUCCESS                       *
               *           SCF CONVERGED AFTER  12 CYCLES          *
               *****************************************************

Recomputing exchange energy using gridx3       ... done (    1.202 sec)
Old exchange energy                            :    -32.123575669 Eh
New exchange energy                            :    -32.123549175 Eh
Exchange energy change after final integration :      0.000026494 Eh
Total energy after final integration           :  -1827.281861268 Eh
             **** ENERGY FILE WAS UPDATED (TFS.en.tmp) ****

----------------
TOTAL SCF ENERGY
----------------

Total Energy       :      -1827.28186126760033 Eh          -49722.86731 eV

Components:
Nuclear Repulsion  :       1553.87787212174726 Eh           42283.16654 eV
Electronic Energy  :      -3381.15975988304945 Eh          -92006.03456 eV
One Electron Energy:      -5643.26922017799370 Eh         -153561.16238 eV
Two Electron Energy:       2262.10946029494426 Eh           61555.12782 eV

Virial components:
Potential Energy   :      -3649.35633380298350 Eh          -99304.03436 eV
Kinetic Energy     :       1822.07447253538294 Eh           49581.16706 eV
Virial Ratio       :          2.00285794505697

DFT components:
N(Alpha)           :       68.999965595514 electrons
N(Beta)            :       68.999965595514 electrons
N(Total)           :      137.999931191029 electrons
E(X)               :     -127.972440025659 Eh       
E(C)               :       -6.228938248698 Eh       
E(XC)              :     -134.201378274357 Eh       

---------------
SCF CONVERGENCE
---------------

  Last Energy change         ...   -7.9472e-09  Tolerance :   1.0000e-08
  Last MAX-Density change    ...    5.0046e-05  Tolerance :   1.0000e-07
  Last RMS-Density change    ...    1.2946e-06  Tolerance :   5.0000e-09
  Last DIIS Error            ...    3.2250e-03  Tolerance :   5.0000e-07
  Last Orbital Gradient      ...    4.3718e-05  Tolerance :   1.0000e-05
  Last Orbital Rotation      ...    8.6672e-05  Tolerance :   1.0000e-05


----------------
ORBITAL ENERGIES
----------------

  NO   OCC          E(Eh)            E(eV) 
   0   2.0000     -88.930285     -2419.9161 
   1   2.0000     -88.930260     -2419.9154 
   2   2.0000     -24.622264      -670.0059 
   3   2.0000     -24.622206      -670.0043 
   4   2.0000     -24.613273      -669.7612 
   5   2.0000     -24.613154      -669.7580 
   6   2.0000     -24.612480      -669.7396 
   7   2.0000     -24.612462      -669.7392 
   8   2.0000     -18.994954      -516.8790 
   9   2.0000     -18.994895      -516.8774 
  10   2.0000     -18.989386      -516.7275 
  11   2.0000     -18.989355      -516.7266 
  12   2.0000     -14.161723      -385.3601 
  13   2.0000     -10.330372      -281.1037 
  14   2.0000     -10.330335      -281.1027 
  15   2.0000      -7.974910      -217.0083 
  16   2.0000      -7.974881      -217.0076 
  17   2.0000      -5.938603      -161.5976 
  18   2.0000      -5.938575      -161.5968 
  19   2.0000      -5.937935      -161.5794 
  20   2.0000      -5.937906      -161.5786 
  21   2.0000      -5.935811      -161.5216 
  22   2.0000      -5.935783      -161.5209 
  23   2.0000      -1.212664       -32.9983 
  24   2.0000      -1.212555       -32.9953 
  25   2.0000      -1.128826       -30.7169 
  26   2.0000      -1.128732       -30.7143 
  27   2.0000      -1.123232       -30.5647 
  28   2.0000      -1.123157       -30.5627 
  29   2.0000      -0.987388       -26.8682 
  30   2.0000      -0.977747       -26.6059 
  31   2.0000      -0.879434       -23.9306 
  32   2.0000      -0.876425       -23.8487 
  33   2.0000      -0.715936       -19.4816 
  34   2.0000      -0.659507       -17.9461 
  35   2.0000      -0.633975       -17.2513 
  36   2.0000      -0.557543       -15.1715 
  37   2.0000      -0.532554       -14.4915 
  38   2.0000      -0.498981       -13.5780 
  39   2.0000      -0.495325       -13.4785 
  40   2.0000      -0.493577       -13.4309 
  41   2.0000      -0.493458       -13.4277 
  42   2.0000      -0.447605       -12.1800 
  43   2.0000      -0.404698       -11.0124 
  44   2.0000      -0.377550       -10.2737 
  45   2.0000      -0.374929       -10.2023 
  46   2.0000      -0.374261       -10.1841 
  47   2.0000      -0.373052       -10.1513 
  48   2.0000      -0.362541        -9.8652 
  49   2.0000      -0.341880        -9.3030 
  50   2.0000      -0.340574        -9.2675 
  51   2.0000      -0.337365        -9.1802 
  52   2.0000      -0.335751        -9.1362 
  53   2.0000      -0.331258        -9.0140 
  54   2.0000      -0.330049        -8.9811 
  55   2.0000      -0.323827        -8.8118 
  56   2.0000      -0.318645        -8.6708 
  57   2.0000      -0.314702        -8.5635 
  58   2.0000      -0.314512        -8.5583 
  59   2.0000      -0.273342        -7.4380 
  60   2.0000      -0.226166        -6.1543 
  61   2.0000      -0.219082        -5.9615 
  62   2.0000      -0.217107        -5.9078 
  63   2.0000      -0.199590        -5.4311 
  64   2.0000      -0.197925        -5.3858 
  65   2.0000      -0.184152        -5.0110 
  66   2.0000      -0.180101        -4.9008 
  67   2.0000      -0.141253        -3.8437 
  68   2.0000      -0.095832        -2.6077 
  69   0.0000       0.113367         3.0849 
  70   0.0000       0.160279         4.3614 
  71   0.0000       0.170009         4.6262 
  72   0.0000       0.185548         5.0490 
  73   0.0000       0.199567         5.4305 
  74   0.0000       0.203177         5.5287 
  75   0.0000       0.220884         6.0106 
  76   0.0000       0.228916         6.2291 
  77   0.0000       0.242085         6.5875 
  78   0.0000       0.264169         7.1884 
  79   0.0000       0.293330         7.9819 
*Only the first 10 virtual orbitals were printed.

                    ********************************
                    * MULLIKEN POPULATION ANALYSIS *
                    ********************************

-----------------------
MULLIKEN ATOMIC CHARGES
-----------------------
   0 S :    0.772578
   1 S :    0.772550
   2 F :   -0.167060
   3 F :   -0.177702
   4 F :   -0.164817
   5 F :   -0.177655
   6 F :   -0.166940
   7 F :   -0.164831
   8 O :   -0.448628
   9 O :   -0.455903
  10 O :   -0.455791
  11 O :   -0.448569
  12 N :   -0.562469
  13 C :    0.422618
  14 C :    0.422620
Sum of atomic charges:   -1.0000000

--------------------------------
MULLIKEN REDUCED ORBITAL CHARGES
--------------------------------
  0 S s       :     5.408206  s :     5.408206
      pz      :     2.782553  p :     8.670690
      px      :     2.984006
      py      :     2.904130
      dz2     :     0.270736  d :     1.053955
      dxz     :     0.222429
      dyz     :     0.213745
      dx2y2   :     0.124683
      dxy     :     0.222363
      f0      :     0.020343  f :     0.094572
      f+1     :     0.020036
      f-1     :     0.015785
      f+2     :     0.012874
      f-2     :     0.012756
      f+3     :     0.008000
      f-3     :     0.004778

  1 S s       :     5.408261  s :     5.408261
      pz      :     2.782517  p :     8.670744
      px      :     2.984081
      py      :     2.904146
      dz2     :     0.270740  d :     1.053881
      dxz     :     0.222419
      dyz     :     0.213739
      dx2y2   :     0.124651
      dxy     :     0.222332
      f0      :     0.020339  f :     0.094564
      f+1     :     0.020033
      f-1     :     0.015789
      f+2     :     0.012872
      f-2     :     0.012755
      f+3     :     0.007997
      f-3     :     0.004779

  2 F s       :     3.908415  s :     3.908415
      pz      :     1.546482  p :     5.241965
      px      :     1.898230
      py      :     1.797253
      dz2     :     0.005940  d :     0.015954
      dxz     :     0.002594
      dyz     :     0.005653
      dx2y2   :     0.000937
      dxy     :     0.000831
      f0      :     0.000186  f :     0.000725
      f+1     :     0.000083
      f-1     :     0.000278
      f+2     :     0.000089
      f-2     :     0.000070
      f+3     :     0.000009
      f-3     :     0.000009

  3 F s       :     3.909577  s :     3.909577
      pz      :     1.884895  p :     5.251655
      px      :     1.489941
      py      :     1.876819
      dz2     :     0.002187  d :     0.015755
      dxz     :     0.003310
      dyz     :     0.000549
      dx2y2   :     0.005532
      dxy     :     0.004177
      f0      :     0.000066  f :     0.000716
      f+1     :     0.000127
      f-1     :     0.000018
      f+2     :     0.000091
      f-2     :     0.000049
      f+3     :     0.000175
      f-3     :     0.000189

  4 F s       :     3.908561  s :     3.908561
      pz      :     1.690504  p :     5.239518
      px      :     1.869881
      py      :     1.679133
      dz2     :     0.002846  d :     0.016010
      dxz     :     0.002342
      dyz     :     0.006029
      dx2y2   :     0.002456
      dxy     :     0.002337
      f0      :     0.000084  f :     0.000728
      f+1     :     0.000048
      f-1     :     0.000184
      f+2     :     0.000153
      f-2     :     0.000151
      f+3     :     0.000056
      f-3     :     0.000052

  5 F s       :     3.909565  s :     3.909565
      pz      :     1.884420  p :     5.251614
      px      :     1.490327
      py      :     1.876867
      dz2     :     0.002184  d :     0.015759
      dxz     :     0.003325
      dyz     :     0.000553
      dx2y2   :     0.005526
      dxy     :     0.004172
      f0      :     0.000067  f :     0.000717
      f+1     :     0.000127
      f-1     :     0.000018
      f+2     :     0.000092
      f-2     :     0.000050
      f+3     :     0.000175
      f-3     :     0.000189

  6 F s       :     3.908387  s :     3.908387
      pz      :     1.545808  p :     5.241862
      px      :     1.898146
      py      :     1.797908
      dz2     :     0.005963  d :     0.015965
      dxz     :     0.002601
      dyz     :     0.005644
      dx2y2   :     0.000930
      dxy     :     0.000827
      f0      :     0.000187  f :     0.000726
      f+1     :     0.000084
      f-1     :     0.000278
      f+2     :     0.000089
      f-2     :     0.000070
      f+3     :     0.000009
      f-3     :     0.000009

  7 F s       :     3.908569  s :     3.908569
      pz      :     1.691556  p :     5.239526
      px      :     1.869517
      py      :     1.678453
      dz2     :     0.002831  d :     0.016008
      dxz     :     0.002341
      dyz     :     0.006018
      dx2y2   :     0.002465
      dxy     :     0.002352
      f0      :     0.000084  f :     0.000728
      f+1     :     0.000048
      f-1     :     0.000182
      f+2     :     0.000153
      f-2     :     0.000152
      f+3     :     0.000057
      f-3     :     0.000052

  8 O s       :     3.831497  s :     3.831497
      pz      :     1.321871  p :     4.580493
      px      :     1.647934
      py      :     1.610687
      dz2     :     0.012025  d :     0.034612
      dxz     :     0.009084
      dyz     :     0.010172
      dx2y2   :     0.001682
      dxy     :     0.001649
      f0      :     0.000636  f :     0.002027
      f+1     :     0.000446
      f-1     :     0.000550
      f+2     :     0.000176
      f-2     :     0.000188
      f+3     :     0.000016
      f-3     :     0.000014

  9 O s       :     3.829768  s :     3.829768
      pz      :     1.432126  p :     4.590028
      px      :     1.637043
      py      :     1.520859
      dz2     :     0.009215  d :     0.034092
      dxz     :     0.006747
      dyz     :     0.009490
      dx2y2   :     0.004363
      dxy     :     0.004277
      f0      :     0.000364  f :     0.002016
      f+1     :     0.000216
      f-1     :     0.000485
      f+2     :     0.000374
      f-2     :     0.000377
      f+3     :     0.000097
      f-3     :     0.000103

 10 O s       :     3.829755  s :     3.829755
      pz      :     1.432161  p :     4.589924
      px      :     1.636964
      py      :     1.520800
      dz2     :     0.009216  d :     0.034095
      dxz     :     0.006748
      dyz     :     0.009490
      dx2y2   :     0.004363
      dxy     :     0.004278
      f0      :     0.000364  f :     0.002016
      f+1     :     0.000216
      f-1     :     0.000485
      f+2     :     0.000374
      f-2     :     0.000377
      f+3     :     0.000097
      f-3     :     0.000103

 11 O s       :     3.831483  s :     3.831483
      pz      :     1.321868  p :     4.580445
      px      :     1.647918
      py      :     1.610659
      dz2     :     0.012026  d :     0.034615
      dxz     :     0.009086
      dyz     :     0.010172
      dx2y2   :     0.001682
      dxy     :     0.001649
      f0      :     0.000636  f :     0.002027
      f+1     :     0.000446
      f-1     :     0.000550
      f+2     :     0.000176
      f-2     :     0.000188
      f+3     :     0.000016
      f-3     :     0.000014

 12 N s       :     3.653999  s :     3.653999
      pz      :     1.618545  p :     3.865751
      px      :     0.894823
      py      :     1.352382
      dz2     :     0.005947  d :     0.039599
      dxz     :     0.006809
      dyz     :     0.005484
      dx2y2   :     0.007746
      dxy     :     0.013613
      f0      :     0.000521  f :     0.003121
      f+1     :     0.000598
      f-1     :     0.000254
      f+2     :     0.000339
      f-2     :     0.000326
      f+3     :     0.000376
      f-3     :     0.000707

 13 C s       :     3.051765  s :     3.051765
      pz      :     0.645278  p :     2.156299
      px      :     0.720374
      py      :     0.790647
      dz2     :     0.072586  d :     0.331818
      dxz     :     0.075007
      dyz     :     0.061213
      dx2y2   :     0.056777
      dxy     :     0.066237
      f0      :     0.006904  f :     0.037500
      f+1     :     0.005588
      f-1     :     0.005394
      f+2     :     0.006178
      f-2     :     0.005142
      f+3     :     0.004481
      f-3     :     0.003813

 14 C s       :     3.051705  s :     3.051705
      pz      :     0.645250  p :     2.156292
      px      :     0.720340
      py      :     0.790702
      dz2     :     0.072594  d :     0.331875
      dxz     :     0.074992
      dyz     :     0.061265
      dx2y2   :     0.056787
      dxy     :     0.066238
      f0      :     0.006880  f :     0.037509
      f+1     :     0.005619
      f-1     :     0.005408
      f+2     :     0.006173
      f-2     :     0.005132
      f+3     :     0.004477
      f-3     :     0.003821



                     *******************************
                     * LOEWDIN POPULATION ANALYSIS *
                     *******************************

----------------------
LOEWDIN ATOMIC CHARGES
----------------------
   0 S :    0.605903
   1 S :    0.605980
   2 F :    0.175830
   3 F :    0.170406
   4 F :    0.177439
   5 F :    0.170546
   6 F :    0.176167
   7 F :    0.177359
   8 O :   -0.290887
   9 O :   -0.291957
  10 O :   -0.291865
  11 O :   -0.290845
  12 N :   -0.527541
  13 C :   -0.783131
  14 C :   -0.783404

-------------------------------
LOEWDIN REDUCED ORBITAL CHARGES
-------------------------------
  0 S s       :     4.772743  s :     4.772743
      pz      :     2.873742  p :     8.647245
      px      :     2.894516
      py      :     2.878987
      dz2     :     0.454957  d :     1.689829
      dxz     :     0.320451
      dyz     :     0.368638
      dx2y2   :     0.186680
      dxy     :     0.359102
      f0      :     0.061887  f :     0.284280
      f+1     :     0.055184
      f-1     :     0.051480
      f+2     :     0.038040
      f-2     :     0.039265
      f+3     :     0.021645
      f-3     :     0.016778

  1 S s       :     4.772791  s :     4.772791
      pz      :     2.873741  p :     8.647266
      px      :     2.894528
      py      :     2.878997
      dz2     :     0.454959  d :     1.689707
      dxz     :     0.320412
      dyz     :     0.368649
      dx2y2   :     0.186644
      dxy     :     0.359043
      f0      :     0.061880  f :     0.284256
      f+1     :     0.055176
      f-1     :     0.051488
      f+2     :     0.038039
      f-2     :     0.039263
      f+3     :     0.021635
      f-3     :     0.016775

  2 F s       :     3.618159  s :     3.618159
      pz      :     1.593673  p :     5.174723
      px      :     1.824966
      py      :     1.756084
      dz2     :     0.010864  d :     0.029754
      dxz     :     0.004365
      dyz     :     0.011486
      dx2y2   :     0.001700
      dxy     :     0.001339
      f0      :     0.000395  f :     0.001534
      f+1     :     0.000183
      f-1     :     0.000569
      f+2     :     0.000195
      f-2     :     0.000156
      f+3     :     0.000021
      f-3     :     0.000016

  3 F s       :     3.617918  s :     3.617918
      pz      :     1.817174  p :     5.180497
      px      :     1.551721
      py      :     1.811602
      dz2     :     0.004126  d :     0.029652
      dxz     :     0.005531
      dyz     :     0.000914
      dx2y2   :     0.011479
      dxy     :     0.007602
      f0      :     0.000133  f :     0.001527
      f+1     :     0.000265
      f-1     :     0.000037
      f+2     :     0.000184
      f-2     :     0.000109
      f+3     :     0.000400
      f-3     :     0.000400

  4 F s       :     3.618084  s :     3.618084
      pz      :     1.688734  p :     5.173193
      px      :     1.807898
      py      :     1.676560
      dz2     :     0.004606  d :     0.029751
      dxz     :     0.004090
      dyz     :     0.012207
      dx2y2   :     0.004872
      dxy     :     0.003976
      f0      :     0.000187  f :     0.001534
      f+1     :     0.000097
      f-1     :     0.000361
      f+2     :     0.000351
      f-2     :     0.000307
      f+3     :     0.000109
      f-3     :     0.000122

  5 F s       :     3.617837  s :     3.617837
      pz      :     1.816827  p :     5.180427
      px      :     1.552003
      py      :     1.811597
      dz2     :     0.004118  d :     0.029662
      dxz     :     0.005565
      dyz     :     0.000920
      dx2y2   :     0.011466
      dxy     :     0.007593
      f0      :     0.000133  f :     0.001528
      f+1     :     0.000264
      f-1     :     0.000037
      f+2     :     0.000186
      f-2     :     0.000110
      f+3     :     0.000399
      f-3     :     0.000399

  6 F s       :     3.617971  s :     3.617971
      pz      :     1.593255  p :     5.174549
      px      :     1.824810
      py      :     1.756485
      dz2     :     0.010912  d :     0.029777
      dxz     :     0.004379
      dyz     :     0.011468
      dx2y2   :     0.001685
      dxy     :     0.001334
      f0      :     0.000397  f :     0.001535
      f+1     :     0.000184
      f-1     :     0.000569
      f+2     :     0.000193
      f-2     :     0.000155
      f+3     :     0.000021
      f-3     :     0.000016

  7 F s       :     3.618134  s :     3.618134
      pz      :     1.689431  p :     5.173228
      px      :     1.807692
      py      :     1.676106
      dz2     :     0.004577  d :     0.029745
      dxz     :     0.004089
      dyz     :     0.012184
      dx2y2   :     0.004892
      dxy     :     0.004003
      f0      :     0.000186  f :     0.001533
      f+1     :     0.000097
      f-1     :     0.000359
      f+2     :     0.000351
      f-2     :     0.000308
      f+3     :     0.000110
      f-3     :     0.000123

  8 O s       :     3.568510  s :     3.568510
      pz      :     1.485542  p :     4.649990
      px      :     1.590837
      py      :     1.573610
      dz2     :     0.030678  d :     0.067820
      dxz     :     0.012437
      dyz     :     0.019921
      dx2y2   :     0.002298
      dxy     :     0.002486
      f0      :     0.001539  f :     0.004567
      f+1     :     0.000718
      f-1     :     0.001558
      f+2     :     0.000334
      f-2     :     0.000357
      f+3     :     0.000038
      f-3     :     0.000023

  9 O s       :     3.569656  s :     3.569656
      pz      :     1.522245  p :     4.651397
      px      :     1.591744
      py      :     1.537407
      dz2     :     0.015201  d :     0.066398
      dxz     :     0.011260
      dyz     :     0.025829
      dx2y2   :     0.006743
      dxy     :     0.007365
      f0      :     0.000593  f :     0.004506
      f+1     :     0.000448
      f-1     :     0.001407
      f+2     :     0.000799
      f-2     :     0.000856
      f+3     :     0.000207
      f-3     :     0.000196

 10 O s       :     3.569622  s :     3.569622
      pz      :     1.522280  p :     4.651328
      px      :     1.591658
      py      :     1.537389
      dz2     :     0.015201  d :     0.066408
      dxz     :     0.011258
      dyz     :     0.025837
      dx2y2   :     0.006745
      dxy     :     0.007367
      f0      :     0.000593  f :     0.004507
      f+1     :     0.000448
      f-1     :     0.001407
      f+2     :     0.000800
      f-2     :     0.000856
      f+3     :     0.000207
      f-3     :     0.000196

 11 O s       :     3.568498  s :     3.568498
      pz      :     1.485556  p :     4.649954
      px      :     1.590816
      py      :     1.573582
      dz2     :     0.030681  d :     0.067826
      dxz     :     0.012440
      dyz     :     0.019920
      dx2y2   :     0.002298
      dxy     :     0.002486
      f0      :     0.001539  f :     0.004567
      f+1     :     0.000719
      f-1     :     0.001558
      f+2     :     0.000333
      f-2     :     0.000357
      f+3     :     0.000038
      f-3     :     0.000023

 12 N s       :     3.355423  s :     3.355423
      pz      :     1.564220  p :     4.042689
      px      :     1.066323
      py      :     1.412147
      dz2     :     0.018270  d :     0.120431
      dxz     :     0.021789
      dyz     :     0.008846
      dx2y2   :     0.023000
      dxy     :     0.048526
      f0      :     0.000940  f :     0.008999
      f+1     :     0.001719
      f-1     :     0.000498
      f+2     :     0.000628
      f-2     :     0.001294
      f+3     :     0.001145
      f-3     :     0.002776

 13 C s       :     2.840853  s :     2.840853
      pz      :     0.788561  p :     2.600415
      px      :     0.872887
      py      :     0.938968
      dz2     :     0.251544  d :     1.105760
      dxz     :     0.192997
      dyz     :     0.234708
      dx2y2   :     0.191444
      dxy     :     0.235066
      f0      :     0.038587  f :     0.236103
      f+1     :     0.034815
      f-1     :     0.038751
      f+2     :     0.041842
      f-2     :     0.030468
      f+3     :     0.027630
      f-3     :     0.024010

 14 C s       :     2.840790  s :     2.840790
      pz      :     0.788606  p :     2.600475
      px      :     0.872878
      py      :     0.938992
      dz2     :     0.251619  d :     1.105958
      dxz     :     0.193271
      dyz     :     0.234533
      dx2y2   :     0.191403
      dxy     :     0.235132
      f0      :     0.038562  f :     0.236181
      f+1     :     0.034913
      f-1     :     0.038763
      f+2     :     0.041830
      f-2     :     0.030462
      f+3     :     0.027622
      f-3     :     0.024030



                      *****************************
                      * MAYER POPULATION ANALYSIS *
                      *****************************

  NA   - Mulliken gross atomic population
  ZA   - Total nuclear charge
  QA   - Mulliken gross atomic charge
  VA   - Mayer's total valence
  BVA  - Mayer's bonded valence
  FA   - Mayer's free valence

  ATOM       NA         ZA         QA         VA         BVA        FA
  0 S     15.2274    16.0000     0.7726     5.8372     5.8372    -0.0000
  1 S     15.2274    16.0000     0.7726     5.8370     5.8370    -0.0000
  2 F      9.1671     9.0000    -0.1671     1.1338     1.1338     0.0000
  3 F      9.1777     9.0000    -0.1777     1.1222     1.1222    -0.0000
  4 F      9.1648     9.0000    -0.1648     1.1390     1.1390    -0.0000
  5 F      9.1777     9.0000    -0.1777     1.1222     1.1222     0.0000
  6 F      9.1669     9.0000    -0.1669     1.1340     1.1340    -0.0000
  7 F      9.1648     9.0000    -0.1648     1.1390     1.1390    -0.0000
  8 O      8.4486     8.0000    -0.4486     2.0167     2.0167     0.0000
  9 O      8.4559     8.0000    -0.4559     2.0161     2.0161    -0.0000
 10 O      8.4558     8.0000    -0.4558     2.0162     2.0162     0.0000
 11 O      8.4486     8.0000    -0.4486     2.0168     2.0168     0.0000
 12 N      7.5625     7.0000    -0.5625     2.4934     2.4934    -0.0000
 13 C      5.5774     6.0000     0.4226     4.4794     4.4794    -0.0000
 14 C      5.5774     6.0000     0.4226     4.4795     4.4795    -0.0000

  Mayer bond orders larger than 0.100000
B(  0-S ,  8-O ) :   1.8436 B(  0-S ,  9-O ) :   1.8457 B(  0-S , 12-N ) :   1.1508 
B(  0-S , 13-C ) :   0.8527 B(  1-S , 10-O ) :   1.8458 B(  1-S , 11-O ) :   1.8437 
B(  1-S , 12-N ) :   1.1505 B(  1-S , 14-C ) :   0.8526 B(  2-F , 13-C ) :   1.1307 
B(  3-F , 13-C ) :   1.1134 B(  4-F , 13-C ) :   1.1358 B(  5-F , 14-C ) :   1.1134 
B(  6-F , 14-C ) :   1.1309 B(  7-F , 14-C ) :   1.1357 

-------
TIMINGS
-------

Total SCF time: 0 days 0 hours 0 min 9 sec 

Total time                  ....       9.461 sec
Sum of individual times     ....       9.443 sec  ( 99.8%)

SCF preparation             ....       0.699 sec  (  7.4%)
Fock matrix formation       ....       7.521 sec  ( 79.5%)
  Startup                   ....       0.037 sec  (  0.5% of F)
  Split-RI-J                ....       0.815 sec  ( 10.8% of F)
  Chain of spheres X        ....       5.673 sec  ( 75.4% of F)
  XC integration            ....       0.865 sec  ( 11.5% of F)
    XC Preparation          ....       0.000 sec  (  0.0% of XC)
    Basis function eval.    ....       0.187 sec  ( 21.6% of XC)
    Density eval.           ....       0.215 sec  ( 24.9% of XC)
    XC-Functional eval.     ....       0.023 sec  (  2.7% of XC)
    XC-Potential eval.      ....       0.256 sec  ( 29.6% of XC)
Diagonalization             ....       0.000 sec  (  0.0%)
Density matrix formation    ....       0.124 sec  (  1.3%)
Total Energy calculation    ....       0.065 sec  (  0.7%)
Population analysis         ....       0.050 sec  (  0.5%)
Orbital Transformation      ....       0.113 sec  (  1.2%)
Orbital Orthonormalization  ....       0.000 sec  (  0.0%)
DIIS solution               ....       0.596 sec  (  6.3%)
SOSCF solution              ....       0.274 sec  (  2.9%)
Finished LeanSCF after   9.5 sec

Maximum memory used throughout the entire LEANSCF-calculation: 44.8 MB


-------------------------------------------------------------------------------
                          DFT DISPERSION CORRECTION                            
                                                                               
                                DFTD4 V3.4.0                                   
-------------------------------------------------------------------------------
The B3LYP functional is recognized
Active option DFTDOPT                   ...         5   

-------------------------   ----------------
Dispersion correction           -0.036778990
-------------------------   ----------------


-------------------------   --------------------
FINAL SINGLE POINT ENERGY     -1827.318640257133
-------------------------   --------------------

--------------------------------------------------------------------------
WARNING: There was an error initializing an OpenFabrics device.

  Local host:   ga00
  Local device: mlx5_0
--------------------------------------------------------------------------


           ************************************************************
           *        Program running with 30 parallel MPI-processes    *
           *              working on a common directory               *
           ************************************************************
------------------------------------------------------------------------------
                         ORCA SCF GRADIENT CALCULATION
------------------------------------------------------------------------------

Nuc. rep. gradient        (SHARK) ... done (  0.0 sec)
HCore & Overlap gradient  (SHARK) ... done (  0.0 sec)
Split-RIJ-J gradient      (SHARK) ... done (  0.3 sec)
COSX-gradient                     ... done (  2.7 sec)
XC gradient                       ... done (  0.3 sec)
Dispersion correction             ... done (  0.0 sec)

-------------------
DISPERSION GRADIENT
-------------------

   1   S   :   -0.001194687   -0.000258968   -0.000016085
   2   S   :    0.001194662   -0.000258935   -0.000016073
   3   F   :   -0.000305235    0.000379452   -0.000239860
   4   F   :   -0.000454715    0.000179452    0.000048608
   5   F   :   -0.000307285    0.000465577    0.000191858
   6   F   :    0.000454646    0.000179608    0.000049321
   7   F   :    0.000305569    0.000378943   -0.000240094
   8   F   :    0.000307125    0.000466130    0.000191301
   9   O   :   -0.000361127   -0.000457726    0.000599972
  10   O   :   -0.000440312   -0.000570542   -0.000460300
  11   O   :    0.000440294   -0.000570620   -0.000460320
  12   O   :    0.000361124   -0.000457820    0.000599951
  13   N   :   -0.000000015    0.000009294   -0.000238970
  14   C   :   -0.000482866    0.000258070   -0.000004694
  15   C   :    0.000482822    0.000258086   -0.000004614

Difference to translation invariance:
           :   -0.0000000000    0.0000000000   -0.0000000000

Difference to rotation invariance:
           :    0.0000000000   -0.0000000000   -0.0000000000

Norm of the Dispersion gradient    ...    0.0028768971
RMS gradient                       ...    0.0004288625
MAX gradient                       ...    0.0011946870

------------------
CARTESIAN GRADIENT
------------------

   1   S   :   -0.125431766    0.031914994    0.005361786
   2   S   :    0.125506292    0.031833269    0.005298784
   3   F   :    0.000991701    0.006268754   -0.009838505
   4   F   :   -0.009488633    0.002198716    0.001170026
   5   F   :    0.004422192    0.009908702    0.007584775
   6   F   :    0.009403520    0.002216069    0.001199339
   7   F   :   -0.000975888    0.006166856   -0.009723850
   8   F   :   -0.004460595    0.009929663    0.007582668
   9   O   :    0.024550339   -0.000496817    0.010047007
  10   O   :    0.016432760   -0.008911036   -0.014138724
  11   O   :   -0.016466360   -0.008881115   -0.014086135
  12   O   :   -0.024571063   -0.000494390    0.010015553
  13   N   :   -0.000026126    0.020623547   -0.008123185
  14   C   :    0.023463169   -0.051184690    0.003890978
  15   C   :   -0.023349543   -0.051092522    0.003759482

Difference to translation invariance:
           :   -0.0000000000    0.0000000000   -0.0000000000

Difference to rotation invariance:
           :   -0.0002614128    0.0000115504   -0.0000017264

Norm of the Cartesian gradient     ...    0.2091391962
RMS gradient                       ...    0.0311766306
MAX gradient                       ...    0.1255062917

-------
TIMINGS
-------

Total SCF gradient time     ....        3.337 sec

Densities                   ....       0.007 sec  (  0.2%)
One electron gradient       ....       0.034 sec  (  1.0%)
RI-J Coulomb gradient       ....       0.274 sec  (  8.2%)
COSX gradient               ....       2.660 sec  ( 79.7%)
XC gradient                 ....       0.332 sec  ( 10.0%)

Maximum memory used throughout the entire SCFGRAD-calculation: 54.8 MB
[ga00:440614] 29 more processes have sent help message help-mpi-btl-openib.txt / error in device init
[ga00:440614] Set MCA parameter "orte_base_help_aggregate" to 0 to see all help / error messages
------------------------------------------------------------------------------
                         ORCA GEOMETRY RELAXATION STEP
------------------------------------------------------------------------------

Reading the OPT-File                    .... done
Getting information on internals        .... done
Copying old internal coords+grads       .... done
Making the new internal coordinates     .... (2022 redundants) done
Validating the new internal coordinates .... (2022 redundants) done
Calculating the B-matrix                .... done
Calculating the G,G- and P matrices     .... done
Transforming gradient to internals      .... done
Projecting the internal gradient        .... done
Number of atoms                         ....  15
Number of internal coordinates          ....  57
Current Energy                          .... -1827.318640257 Eh
Current gradient norm                   ....     0.209139196 Eh/bohr
Maximum allowed component of the step   ....  0.300
Current trust radius                    ....  0.300
Evaluating the initial hessian          ....  (Almloef) done
Projecting the Hessian                  .... done
Forming the augmented Hessian           .... done
Diagonalizing the augmented Hessian     .... done
Last element of RFO vector              ....  0.946588097
Lowest eigenvalues of augmented Hessian:
 -0.046162337  0.004968620  0.004972891  0.005228969  0.005352802
Length of the computed step             ....  0.340639511
Warning: the length of the step is outside the trust region - taking restricted step instead
The input lambda is                     ....     0.003968
   iter:   5  x=   -0.006137  g=   47.239307 f(x)=     0.213670
   iter:  10  x=   -0.095129  g=    0.422835 f(x)=     0.000352
The output lambda is                    ....    -0.095132 (13 iterations)
The final length of the internal step   ....  0.300000000
Converting the step to Cartesian space:
 Initial RMS(Int)=    0.0397359707
Transforming coordinates:
 Iter   0:  RMS(Cart)=    0.0951717302 RMS(Int)=    0.8311787819
 Iter   5:  RMS(Cart)=    0.0000000834 RMS(Int)=    0.0000000647
done
Storing new coordinates                 .... done

                                .--------------------.
          ----------------------|Geometry convergence|-------------------------
          Item                value                   Tolerance       Converged
          ---------------------------------------------------------------------
[...]
      px      :     1.607181
      py      :     1.816911
      dz2     :     0.003898  d :     0.030628
      dxz     :     0.010461
      dyz     :     0.001677
      dx2y2   :     0.008272
      dxy     :     0.006320
      f0      :     0.000170  f :     0.001598
      f+1     :     0.000309
      f-1     :     0.000009
      f+2     :     0.000401
      f-2     :     0.000190
      f+3     :     0.000245
      f-3     :     0.000274

  6 F s       :     3.607985  s :     3.607985
      pz      :     1.549802  p :     5.176564
      px      :     1.809245
      py      :     1.817517
      dz2     :     0.016318  d :     0.031138
      dxz     :     0.006820
      dyz     :     0.007194
      dx2y2   :     0.000271
      dxy     :     0.000535
      f0      :     0.000710  f :     0.001635
      f+1     :     0.000436
      f-1     :     0.000394
      f+2     :     0.000026
      f-2     :     0.000065
      f+3     :     0.000002
      f-3     :     0.000002

  7 F s       :     3.608143  s :     3.608143
      pz      :     1.804386  p :     5.174866
      px      :     1.723270
      py      :     1.647211
      dz2     :     0.004329  d :     0.031240
      dxz     :     0.003191
      dyz     :     0.004279
      dx2y2   :     0.007795
      dxy     :     0.011646
      f0      :     0.000141  f :     0.001636
      f+1     :     0.000126
      f-1     :     0.000203
      f+2     :     0.000062
      f-2     :     0.000289
      f+3     :     0.000436
      f-3     :     0.000378

  8 O s       :     3.559135  s :     3.559135
      pz      :     1.521665  p :     4.657762
      px      :     1.600286
      py      :     1.535811
      dz2     :     0.016782  d :     0.067407
      dxz     :     0.009626
      dyz     :     0.027543
      dx2y2   :     0.007780
      dxy     :     0.005675
      f0      :     0.000641  f :     0.004633
      f+1     :     0.000381
      f-1     :     0.001596
      f+2     :     0.000952
      f-2     :     0.000678
      f+3     :     0.000166
      f-3     :     0.000217

  9 O s       :     3.556070  s :     3.556070
      pz      :     1.528482  p :     4.665369
      px      :     1.559892
      py      :     1.576995
      dz2     :     0.018451  d :     0.065941
      dxz     :     0.026122
      dyz     :     0.010556
      dx2y2   :     0.005998
      dxy     :     0.004815
      f0      :     0.000692  f :     0.004600
      f+1     :     0.001686
      f-1     :     0.000490
      f+2     :     0.000845
      f-2     :     0.000615
      f+3     :     0.000147
      f-3     :     0.000125

 10 O s       :     3.558017  s :     3.558017
      pz      :     1.593015  p :     4.663504
      px      :     1.542474
      py      :     1.528016
      dz2     :     0.008417  d :     0.066294
      dxz     :     0.011005
      dyz     :     0.010896
      dx2y2   :     0.012439
      dxy     :     0.023536
      f0      :     0.000518  f :     0.004598
      f+1     :     0.000406
      f-1     :     0.000425
      f+2     :     0.000277
      f-2     :     0.001087
      f+3     :     0.000935
      f-3     :     0.000951

 11 O s       :     3.559457  s :     3.559457
      pz      :     1.479284  p :     4.655232
      px      :     1.601555
      py      :     1.574392
      dz2     :     0.037878  d :     0.068071
      dxz     :     0.014884
      dyz     :     0.013631
      dx2y2   :     0.000836
      dxy     :     0.000842
      f0      :     0.002279  f :     0.004652
      f+1     :     0.001143
      f-1     :     0.000970
      f+2     :     0.000116
      f-2     :     0.000133
      f+3     :     0.000004
      f-3     :     0.000005

 12 N s       :     3.224501  s :     3.224501
      pz      :     1.424634  p :     4.016272
      px      :     1.171464
      py      :     1.420174
      dz2     :     0.022248  d :     0.166149
      dxz     :     0.065319
      dyz     :     0.009612
      dx2y2   :     0.043576
      dxy     :     0.025394
      f0      :     0.001315  f :     0.012947
      f+1     :     0.002443
      f-1     :     0.000133
      f+2     :     0.002945
      f-2     :     0.001138
      f+3     :     0.003038
      f-3     :     0.001936

 13 C s       :     2.855134  s :     2.855134
      pz      :     0.810312  p :     2.594092
      px      :     0.804874
      py      :     0.978906
      dz2     :     0.223150  d :     1.105913
      dxz     :     0.236247
      dyz     :     0.228554
      dx2y2   :     0.239330
      dxy     :     0.178632
      f0      :     0.040113  f :     0.243841
      f+1     :     0.037925
      f-1     :     0.032812
      f+2     :     0.042882
      f-2     :     0.034853
      f+3     :     0.025296
      f-3     :     0.029959

 14 C s       :     2.851697  s :     2.851697
      pz      :     0.798343  p :     2.594010
      px      :     0.824916
      py      :     0.970751
      dz2     :     0.261807  d :     1.103900
      dxz     :     0.236287
      dyz     :     0.178462
      dx2y2   :     0.203071
      dxy     :     0.224273
      f0      :     0.038530  f :     0.243669
      f+1     :     0.049915
      f-1     :     0.035950
      f+2     :     0.027192
      f-2     :     0.031946
      f+3     :     0.028214
      f-3     :     0.031923



                      *****************************
                      * MAYER POPULATION ANALYSIS *
                      *****************************

  NA   - Mulliken gross atomic population
  ZA   - Total nuclear charge
  QA   - Mulliken gross atomic charge
  VA   - Mayer's total valence
  BVA  - Mayer's bonded valence
  FA   - Mayer's free valence

  ATOM       NA         ZA         QA         VA         BVA        FA
  0 S     15.2321    16.0000     0.7679     6.0091     6.0091    -0.0000
  1 S     15.2321    16.0000     0.7679     5.9783     5.9783     0.0000
  2 F      9.1803     9.0000    -0.1803     1.1085     1.1085     0.0000
  3 F      9.1843     9.0000    -0.1843     1.1075     1.1075     0.0000
  4 F      9.1666     9.0000    -0.1666     1.1300     1.1300     0.0000
  5 F      9.1831     9.0000    -0.1831     1.1072     1.1072     0.0000
  6 F      9.1745     9.0000    -0.1745     1.1200     1.1200     0.0000
  7 F      9.1749     9.0000    -0.1749     1.1204     1.1204    -0.0000
  8 O      8.4546     8.0000    -0.4546     2.0224     2.0224    -0.0000
  9 O      8.4748     8.0000    -0.4748     2.0194     2.0194    -0.0000
 10 O      8.4727     8.0000    -0.4727     2.0139     2.0139     0.0000
 11 O      8.4525     8.0000    -0.4525     2.0149     2.0149    -0.0000
 12 N      7.4304     7.0000    -0.4304     2.6781     2.6781     0.0000
 13 C      5.5979     6.0000     0.4021     4.3591     4.3591    -0.0000
 14 C      5.5892     6.0000     0.4108     4.3804     4.3804     0.0000

  Mayer bond orders larger than 0.100000
B(  0-S ,  8-O ) :   1.8811 B(  0-S ,  9-O ) :   1.8832 B(  0-S , 12-N ) :   1.2714 
B(  0-S , 13-C ) :   0.8300 B(  1-S , 10-O ) :   1.8753 B(  1-S , 11-O ) :   1.8622 
B(  1-S , 12-N ) :   1.2530 B(  1-S , 14-C ) :   0.8370 B(  2-F , 13-C ) :   1.0985 
B(  3-F , 13-C ) :   1.1036 B(  4-F , 13-C ) :   1.1174 B(  5-F , 14-C ) :   1.1058 
B(  6-F , 14-C ) :   1.1189 B(  7-F , 14-C ) :   1.1106 

-------
TIMINGS
-------

Total SCF time: 0 days 0 hours 0 min 4 sec 

Total time                  ....       4.466 sec
Sum of individual times     ....       4.424 sec  ( 99.1%)

SCF preparation             ....       0.737 sec  ( 16.5%)
Fock matrix formation       ....       3.286 sec  ( 73.6%)
  Startup                   ....       0.013 sec  (  0.4% of F)
  Split-RI-J                ....       0.208 sec  (  6.3% of F)
  Chain of spheres X        ....       2.792 sec  ( 84.9% of F)
  XC integration            ....       0.243 sec  (  7.4% of F)
    Basis function eval.    ....       0.050 sec  ( 20.4% of XC)
    Density eval.           ....       0.062 sec  ( 25.5% of XC)
    XC-Functional eval.     ....       0.006 sec  (  2.4% of XC)
    XC-Potential eval.      ....       0.086 sec  ( 35.2% of XC)
Diagonalization             ....       0.000 sec  (  0.0%)
Density matrix formation    ....       0.030 sec  (  0.7%)
Total Energy calculation    ....       0.021 sec  (  0.5%)
Population analysis         ....       0.081 sec  (  1.8%)
Orbital Transformation      ....       0.058 sec  (  1.3%)
Orbital Orthonormalization  ....       0.000 sec  (  0.0%)
DIIS solution               ....       0.070 sec  (  1.6%)
SOSCF solution              ....       0.142 sec  (  3.2%)
Finished LeanSCF after   4.5 sec

Maximum memory used throughout the entire LEANSCF-calculation: 48.2 MB
[ga00:458673] 29 more processes have sent help message help-mpi-btl-openib.txt / error in device init
[ga00:458673] Set MCA parameter "orte_base_help_aggregate" to 0 to see all help / error messages


-------------------------------------------------------------------------------
                          DFT DISPERSION CORRECTION                            
                                                                               
                                DFTD4 V3.4.0                                   
-------------------------------------------------------------------------------
The B3LYP functional is recognized
Active option DFTDOPT                   ...         5   

-------------------------   ----------------
Dispersion correction           -0.038962791
-------------------------   ----------------


-------------------------   --------------------
FINAL SINGLE POINT ENERGY     -1827.366345534392
-------------------------   --------------------

                                *** OPTIMIZATION RUN DONE ***

--------------------------------------------------------------------------
WARNING: There was an error initializing an OpenFabrics device.

  Local host:   ga00
  Local device: mlx5_0
--------------------------------------------------------------------------


           ************************************************************
           *        Program running with 30 parallel MPI-processes    *
           *              working on a common directory               *
           ************************************************************

------------------------------------------------------------------------------
                              ORCA PROPERTY CALCULATIONS
------------------------------------------------------------------------------

GBWName                                 ... TFS.gbw
Number of atoms                         ...     15
Number of basis functions               ...    477
Max core memory                         ...   5000 MB

Electric properties:
Dipole moment                           ... YES
Quadrupole moment                       ...  NO
Static polarizability (Dipole/Dipole)   ...  NO
Static polarizability (Dipole/Quad.)    ...  NO
Static polarizability (Quad./Quad.)     ...  NO
Static polarizability (Velocity)        ...  NO

Atomic electric properties:
Dipole moment                           ...  NO
Quadrupole moment                       ...  NO
Static polarizability                   ...  NO

Choice of electric origin               ... Center of mass
Position of electric origin             ...    -0.006108    -0.091926     0.000823

General magnetic properties:
Magnetizability                         ...  NO

EPR properties:
g-Tensor (aka g-matrix)                 ...  NO
Zero-Field splitting spin-orbit         ...  NO
Zero-field splitting spin-spin          ...  NO
Hyperfine couplings                     ...  NO (   0 nuclei)
Quadrupole couplings                    ...  NO (   0 nuclei)
Contact density                         ...  NO (   0 nuclei)

NMR properties:
Chemical shifts                         ...  NO (   0 nuclei)
Spin-rotation constants                 ...  NO (   0 nuclei)
Spin-spin couplings                     ...  NO (   0 nuclei,    0 pairs)

Choice of magnetic origin               ... GIAO
Position of magnetic origin             ...     0.000000     0.000000     0.000000

Properties with geometric perturbations:
SCF Hessian                             ...  NO
IR spectrum                             ...  NO
VCD spectrum                            ...  NO
X-ray spectroscopy properties:
SCF XES/XAS/RIXS spectra                ...  NO


-------------
DIPOLE MOMENT
-------------

Method             : SCF
Type of density    : Electron Density
Multiplicity       :   1
Irrep              :   0
Energy             : -1827.3273827437240016 Eh
Relativity type    : 
Basis              : AO
                                X                 Y                 Z
Electronic contribution:      0.590422334       8.463389063       0.162841297
Nuclear contribution   :     -0.425834509      -6.706909520      -0.145094337
                        -----------------------------------------
Total Dipole Moment    :      0.164587825       1.756479543       0.017746959
                        -----------------------------------------
Magnitude (a.u.)       :      1.764263158
Magnitude (Debye)      :      4.484400566



--------------------
Rotational spectrum 
--------------------
 
Rotational constants in cm-1:             0.028514             0.012928             0.011320 
Rotational constants in MHz :           854.829799           387.564403           339.363011 

Dipole components along the rotational axes: 
x,y,z [a.u.] :     0.273187     1.742823     0.023697 
x,y,z [Debye]:     0.694385     4.429904     0.060232 

 

Dipole moment calculation done in   0.0 sec 

Maximum memory used throughout the entire PROP-calculation: 25.5 MB
[ga00:458857] 29 more processes have sent help message help-mpi-btl-openib.txt / error in device init
[ga00:458857] Set MCA parameter "orte_base_help_aggregate" to 0 to see all help / error messages
--------------------------------------------------------------------------
WARNING: There was an error initializing an OpenFabrics device.

  Local host:   ga00
  Local device: mlx5_0
--------------------------------------------------------------------------
[ga00:458993] 29 more processes have sent help message help-mpi-btl-openib.txt / error in device init
[ga00:458993] Set MCA parameter "orte_base_help_aggregate" to 0 to see all help / error messages

--------------------------------
SUGGESTED CITATIONS FOR THIS RUN
--------------------------------

Below you find a list of papers that are relevant to this ORCA run
We neither can nor want to force you to cite these papers, but we appreciate if you do
You receive ORCA, which is the product of decades of hard work by many enthusiastic individuals, for free
The only thing we kindly ask in return is that you cite our papers,
We deeply appreciate it, if you show your appreciation for ORCA by not just citing the generic ORCA reference.

Please note that relegating all ORCA citations to the supporting information does *not* help us.
SI sections are not indexed - citations you put there will not count into any citation statistics
But we need these citations in order to attract the funding resources that allow us to do what we are doing

Therefore, if you are a happy ORCA user, please consider citing a few of the papers listed below in the main body of your paper

In addition to the list printed below, the program has created the file TFS.bibtex that contains the list in bibtex format
You can import this file easily into all common literature databanks and citation aid programs


List of essential papers. We consider these as the minimum necessary citations

  1. Neese,F.
     Software update: the ORCA program system, version 5.0
     WIRES Comput. Molec. Sci., 2022 12(1)e1606
     doi.org/10.1002/wcms.1606

List of papers to cite with high priority. The work reported in these papers was absolutely
necessary for this run to complete.
Our perspective: the developers of density functionals and basis sets usually get cited in chemistry papers
Good! But without the algorithms to do something with them, the functionals or basis sets would not do anything.
Hence, in our opinion, the algorithm design and method developments papers are equally worthy of getting cited

  1. Neese,F.
     An improvement of the resolution of the identity approximation for the formation of the Coulomb matrix
     J. Comp. Chem., 2003 24(14)1740-1747
     doi.org/10.1002/jcc.10318
  2. Neese,F.; Wennmohs,F.; Hansen,A.; Becker,U.
     Efficient, approximate and parallel Hartree-Fock and hybrid DFT calculations. A 'chain-of-spheres' algorithm for the Hartree-Fock exchange
     Chem. Phys., 2009 356(1-3)98-109
     doi.org/10.1016/j.chemphys.2008.10.036
  3. Helmich-Paris,B.; de Souza,B.; Neese,F.; Izsák,R.
     An improved chain of spheres for exchange algorithm
     J. Chem. Phys., 2021 155 104109
     doi.org/doi: 10.1063/5.0058766.
  4. Neese,F.
     The SHARK Integral Generation and Digestion System
     J. Comp. Chem., 2022  1-16
     doi.org/10.1002/jcc.26942
  5. Caldeweyher,E.; Bannwarth,C.; Grimme,S.
     Extension of the D3 dispersion coefficient model
     J. Chem. Phys., 2017 147 034112
     doi.org/10.1063/1.4993215
  6. Caldeweyher,E.; Ehlert,S.; Hansen,A.; Neugebauer,H.; Spicher,S.; Bannwarth,C.; Grimme,S.
     A generally applicable atomic-charge dependent London dispersion correction
     J. Chem. Phys., 2019 150 154122
     doi.org/10.1063/1.5090222
  7. Caldeweyher,E.; Mewes,J.; Ehlert,S.; Grimme,S.
     Extension and evaluation of the D4 London-dispersion model for periodic systems
     Phys. Chem. Chem. Phys., 2020 22(16)8499-8512
     doi.org/10.1039/D0CP00502A
  8. Wittmann,L.; Gordiy,I.; Friede,M.; Helmich-Paris,B.; Grimme,S.; Hansen,A.; Bursch,M.
     Extension of the D3 and D4 London Dispersion Corrections to the full Actinides Series
     Phys. Chem. Chem. Phys., 2024 26(32)21379-21394
     doi.org/https://doi.org/10.1039/D4CP01514B 

List of suggested additional citations. These are papers that are important in the 'surrounding' of 
of this run, or papers that preceded the highly important papers. If you like your results we are grateful for a citation.

  1. Izsak,R.; Neese,F.
     An overlap fitted chain of spheres exchange method
     J. Chem. Phys., 2011 135 144105
     doi.org/10.1063/1.3646921
  2. Izsak,R.; Hansen,A.; Neese,F.
     The resolution of identity and chain of spheres approximations for the LPNO-CCSD singles Fock term
     Molec. Phys., 2012 110 2413-2417
     doi.org/10.1080/00268976.2012.687466
  3. Neese,F.
     The ORCA program system
     WIRES Comput. Molec. Sci., 2012 2(1)73-78
     doi.org/10.1002/wcms.81
  4. Izsak,R.; Neese,F.; Klopper,W.
     Robust fitting techniques in the chain of spheres approximation to the Fock exchange: The role of the complementary space
     J. Chem. Phys., 2013 139 
     doi.org/10.1063/1.4819264
  5. Neese,F.
     Software update: the ORCA program system, version 4.0
     WIRES Comput. Molec. Sci., 2018 8(1)1-6
     doi.org/10.1002/wcms.1327
  6. Neese,F.; Wennmohs,F.; Becker,U.; Riplinger,C.
     The ORCA quantum chemistry program package
     J. Chem. Phys., 2020 152 Art. No. L224108
     doi.org/10.1063/5.0004608

List of optional additional citations

  1. Neese,F.
     Approximate second-order SCF convergence for spin unrestricted wavefunctions
     Chem. Phys. Lett., 2000 325(1-3)93-98
     doi.org/10.1016/s0009-2614(00)00662-x

Timings for individual modules:

Sum of individual times          ...      332.266 sec (=   5.538 min)
Startup calculation              ...       41.029 sec (=   0.684 min)  12.3 %
SCF iterations                   ...      200.282 sec (=   3.338 min)  60.3 %
Property calculations            ...        1.101 sec (=   0.018 min)   0.3 %
SCF Gradient evaluation          ...       89.786 sec (=   1.496 min)  27.0 %
Geometry relaxation              ...        0.068 sec (=   0.001 min)   0.0 %
                             ****ORCA TERMINATED NORMALLY****
TOTAL RUN TIME: 0 days 0 hours 5 minutes 53 seconds 859 msec
