
     Program PWSCF v.7.3.1 starts on 10Apr2025 at 12:50: 7 

     This program is part of the open-source Quantum ESPRESSO suite
     for quantum simulation of materials; please cite
         "P. Giannozzi et al., J. Phys.:Condens. Matter 21 395502 (2009);
         "P. Giannozzi et al., J. Phys.:Condens. Matter 29 465901 (2017);
         "P. Giannozzi et al., J. Chem. Phys. 152 154105 (2020);
          URL http://www.quantum-espresso.org", 
     in publications or presentations arising from this work. More details at
     http://www.quantum-espresso.org/quote

     Parallel version (MPI), running on    33 processors

     MPI processes distributed on     1 nodes
     8821 MiB available memory on the printing compute node when the environment starts

     Waiting for input...
     Reading input from standard input

     Current dimensions of program PWSCF are:
     Max number of different atomic species (ntypx) = 10
     Max number of k-points (npk) =  40000
     Max angular momentum in pseudopotentials (lmaxx) =  4
     file C.pbe-n-kjpaw_psl.1.0.0.UPF: wavefunction(s)  2S 2P renormalized
     file O.pbe-n-kjpaw_psl.0.1.UPF: wavefunction(s)  2P renormalized

     R & G space division:  proc/nbgrp/npool/nimage =      33
     Subspace diagonalization in iterative solution of the eigenvalue problem:
     one sub-group per band group will be used
     custom distributed-memory algorithm (size of sub-group:  3*  3 procs)


     Parallelization info
     --------------------
     sticks:   dense  smooth     PW     G-vecs:    dense   smooth      PW
     Min         589     336     92                53397    23062    3321
     Max         590     337     93                53401    23066    3325
     Sum       19453   11103   3065              1762151   761105  109673

     Using Slab Decomposition



     bravais-lattice index     =            0
     lattice parameter (alat)  =      30.7168  a.u.
     unit-cell volume          =   22271.6335 (a.u.)^3
     number of atoms/cell      =          132
     number of atomic types    =            5
     number of electrons       =       568.00
     number of Kohn-Sham states=          284
     kinetic-energy cutoff     =      40.0000  Ry
     charge density cutoff     =     280.0000  Ry
     scf convergence threshold =      1.0E-06
     mixing beta               =       0.4000
     number of iterations used =            8  plain     mixing
     Exchange-correlation= SLA  PW   PBX  PBC
                           (   1   4   3   4   0   0   0)

     celldm(1)=  30.716808  celldm(2)=   0.000000  celldm(3)=   0.000000
     celldm(4)=   0.000000  celldm(5)=   0.000000  celldm(6)=   0.000000

     crystal axes: (cart. coord. in units of alat)
               a(1) = (   1.000000   0.000000   0.000000 )  
               a(2) = (  -0.378163   0.925739   0.000000 )  
               a(3) = (  -0.310919  -0.462870   0.830109 )  

     reciprocal axes: (cart. coord. in units 2 pi/alat)
               b(1) = (  1.000000  0.408499  0.602330 )  
               b(2) = ( -0.000000  1.080218  0.602330 )  
               b(3) = (  0.000000 -0.000000  1.204661 )  


     PseudoPot. # 1 for Ti read from file:
     /home/ys/qepseudo/SSSP_1.3.0_PBE_efficiency/ti_pbe_v1.4.uspp.F.UPF
     MD5 check sum: 88a00a6731bd790ddea75d31a80cb452
     Pseudo is Ultrasoft + core correction, Zval = 12.0
     Generated by new atomic code, or converted to UPF format
     Using radial grid of  851 points,  6 beta functions with: 
                l(1) =   0
                l(2) =   0
                l(3) =   1
                l(4) =   1
                l(5) =   2
                l(6) =   2
     Q(r) pseudized with  6 coefficients,  rinner =    1.000   1.000   1.000
                                                       1.000   1.000

     PseudoPot. # 2 for N  read from file:
     /home/ys/qepseudo/SSSP_1.3.0_PBE_efficiency/N.pbe-n-radius_5.UPF
     MD5 check sum: 16739722b17309cd8fe442a2ace49922
     Pseudo is Ultrasoft + core correction, Zval =  5.0
     Generated using "atomic" code by A. Dal Corso  v.5.1
     Using radial grid of 1085 points,  4 beta functions with: 
                l(1) =   0
                l(2) =   0
                l(3) =   1
                l(4) =   1
     Q(r) pseudized with 0 coefficients 


     PseudoPot. # 3 for C  read from file:
     /home/ys/qepseudo/SSSP_1.3.0_PBE_efficiency/C.pbe-n-kjpaw_psl.1.0.0.UPF
     MD5 check sum: 5d2aebdfa2cae82b50a7e79e9516da0f
     Pseudo is Projector augmented-wave + core cor, Zval =  4.0
     Generated using "atomic" code by A. Dal Corso  v.5.1
     Shape of augmentation charge: PSQ
     Using radial grid of 1073 points,  4 beta functions with: 
                l(1) =   0
                l(2) =   0
                l(3) =   1
                l(4) =   1
     Q(r) pseudized with 0 coefficients 


     PseudoPot. # 4 for H  read from file:
     /home/ys/qepseudo/SSSP_1.3.0_PBE_efficiency/H.pbe-rrkjus_psl.1.0.0.UPF
     MD5 check sum: f52b6d4d1c606e5624b1dc7b2218f220
     Pseudo is Ultrasoft, Zval =  1.0
     Generated using "atomic" code by A. Dal Corso  v.5.1
     Using radial grid of  929 points,  2 beta functions with: 
                l(1) =   0
                l(2) =   0
     Q(r) pseudized with 0 coefficients 


     PseudoPot. # 5 for O  read from file:
     /home/ys/qepseudo/SSSP_1.3.0_PBE_efficiency/O.pbe-n-kjpaw_psl.0.1.UPF
     MD5 check sum: 0234752ac141de4415c5fc33072bef88
     Pseudo is Projector augmented-wave + core cor, Zval =  6.0
     Generated using "atomic" code by A. Dal Corso  v.5.0.99 svn rev. 10869
     Shape of augmentation charge: BESSEL
     Using radial grid of 1095 points,  4 beta functions with: 
                l(1) =   0
                l(2) =   0
                l(3) =   1
                l(4) =   1
     Q(r) pseudized with 0 coefficients 


     atomic species   valence    mass     pseudopotential
     Ti               12.00    47.86700     Ti( 1.00)
     N                 5.00    14.00674     N ( 1.00)
     C                 4.00    12.01070     C ( 1.00)
     H                 1.00     1.00794     H ( 1.00)
     O                 6.00    15.99940     O ( 1.00)

     No symmetry found


                                    s                        frac. trans.

      isym =  1     identity                                     

 cryst.   s( 1) = (     1          0          0      )
                  (     0          1          0      )
                  (     0          0          1      )

 cart.    s( 1) = (  1.0000000  0.0000000  0.0000000 )
                  (  0.0000000  1.0000000  0.0000000 )
                  (  0.0000000  0.0000000  1.0000000 )


   Cartesian axes

     site n.     atom                  positions (alat units)
         1        Ti     tau(   1) = (  -0.1943417   0.1305430   0.7153135  )
         2        Ti     tau(   2) = (   0.5052601   0.3323264   0.1147958  )
         3        Ti     tau(   3) = (   0.0952930  -0.0640103   0.5959936  )
         4        Ti     tau(   4) = (   0.2156253   0.5268797   0.2341157  )
         5        Ti     tau(   5) = (   0.1165768   0.5934126   0.1147958  )
         6        Ti     tau(   6) = (   0.1943416  -0.1305432   0.7153135  )
         7        Ti     tau(   7) = (  -0.0952931   0.0640101   0.5959936  )
         8        Ti     tau(   8) = (   0.4062115   0.3988592   0.2341157  )
         9        H      tau(   9) = (   0.2273033   0.1012540   0.4517679  )
        10        H      tau(  10) = (  -0.0077772  -0.2487142   0.4517679  )
        11        H      tau(  11) = (   0.3186955   0.7115836   0.3783414  )
        12        H      tau(  12) = (  -0.1965246   0.3859474   0.6978820  )
        13        H      tau(  13) = (   0.5074430   0.0769219   0.1322273  )
        14        H      tau(  14) = (  -0.4316051   0.0359792   0.6978820  )
        15        H      tau(  15) = (   0.7425234   0.4268902   0.1322273  )
        16        H      tau(  16) = (   0.1965245  -0.3859476   0.6978820  )
        17        H      tau(  17) = (  -0.1206866   0.4988488   0.1322273  )
        18        H      tau(  18) = (   0.3031413   0.2141553   0.3783414  )
        19        H      tau(  19) = (   0.0077771   0.2487141   0.4517679  )
        20        H      tau(  20) = (  -0.2273034  -0.1012542   0.4517679  )
        21        H      tau(  21) = (   0.2092045   0.5311927   0.0000000  )
        22        H      tau(  22) = (   0.4126324   0.3945463   0.0000000  )
        23        H      tau(  23) = (  -0.0000001  -0.0000001   0.7075785  )
        24        H      tau(  24) = (   0.3109184   0.4628695   0.1225308  )
        25        H      tau(  25) = (   0.2215666  -0.1488306   0.3760320  )
        26        H      tau(  26) = (   0.0893518   0.6117000   0.4540772  )
        27        H      tau(  27) = (  -0.3769339   0.2531937   0.5631968  )
        28        H      tau(  28) = (   0.6878522   0.2096757   0.2669125  )
        29        H      tau(  29) = (  -0.2215666   0.1488305   0.3760320  )
        30        H      tau(  30) = (  -0.0660154   0.7160632   0.2669125  )
        31        H      tau(  31) = (   0.0510710   0.4119012   0.3948676  )
        32        H      tau(  32) = (   0.0666821   0.4031713   0.3353614  )
        33        H      tau(  33) = (   0.1121090   0.7945726   0.1624469  )
        34        H      tau(  34) = (   0.4896740  -0.0778133   0.1942901  )
        35        H      tau(  35) = (   0.4148455  -0.0211406   0.6399180  )
        36        H      tau(  36) = (   0.3992774  -0.0764526   0.6635636  )
        37        H      tau(  37) = (   0.5726051   0.5310571   0.3385257  )
        38        H      tau(  38) = (   0.5533155   0.5053482   0.3917033  )
        39        H      tau(  39) = (   0.4800361   0.3207201   0.4867173  )
        40        H      tau(  40) = (   0.4983084   0.3655456   0.4477597  )
        41        H      tau(  41) = (   0.3839784  -0.2911586   0.6118789  )
        42        H      tau(  42) = (   0.3917397  -0.2299066   0.6188689  )
        43        C      tau(  43) = (   0.5510999   0.3015349   0.2893371  )
        44        C      tau(  44) = (  -0.2401815   0.1613345   0.5407722  )
        45        C      tau(  45) = (   0.2401814  -0.1613346   0.5407722  )
        46        C      tau(  46) = (   0.0707370   0.6242040   0.2893371  )
        47        C      tau(  47) = (   0.6049578   0.2653575   0.3542176  )
        48        C      tau(  48) = (  -0.2940394   0.1975119   0.4758917  )
        49        C      tau(  49) = (   0.2940393  -0.1975120   0.4758917  )
        50        C      tau(  50) = (   0.0168790   0.6603814   0.3542176  )
        51        C      tau(  51) = (   0.5864332   0.2778008   0.4376842  )
        52        C      tau(  52) = (  -0.2755148   0.1850686   0.3924250  )
        53        C      tau(  53) = (   0.3633258  -0.2440531   0.4982075  )
        54        C      tau(  54) = (  -0.0524074   0.7069225   0.3319018  )
        55        C      tau(  55) = (   0.0354036   0.6479381   0.4376842  )
        56        C      tau(  56) = (   0.2755148  -0.1850687   0.3924250  )
        57        C      tau(  57) = (   0.6742442   0.2188164   0.3319018  )
        58        C      tau(  58) = (  -0.3633259   0.2440530   0.4982075  )
        59        C      tau(  59) = (   0.1977491   0.2943924   0.3743511  )
        60        C      tau(  60) = (   0.1131693   0.1684770   0.4557582  )
        61        C      tau(  61) = (   0.4240877   0.6313465   0.3743511  )
        62        C      tau(  62) = (  -0.1131694  -0.1684772   0.4557582  )
        63        C      tau(  63) = (   0.5085015   0.0856540   0.0000000  )
        64        C      tau(  64) = (   0.1133354   0.8400850   0.0000000  )
        65        C      tau(  65) = (   0.7348401   0.4226082   0.0000000  )
        66        C      tau(  66) = (  -0.1130032   0.5031308   0.0000000  )
        67        C      tau(  67) = (   0.2425630   0.3611076   0.3297094  )
        68        C      tau(  68) = (   0.0683554   0.1017618   0.5003998  )
        69        C      tau(  69) = (   0.3792738   0.5646313   0.3297094  )
        70        C      tau(  70) = (  -0.0683555  -0.1017619   0.5003998  )
        71        C      tau(  71) = (   0.5162579   0.1772614   0.0000000  )
        72        C      tau(  72) = (   0.1055789   0.7484776   0.0000000  )
        73        C      tau(  73) = (   0.6529688   0.3807851   0.0000000  )
        74        C      tau(  74) = (  -0.0311319   0.5449538   0.0000000  )
        75        C      tau(  75) = (   0.1144289   0.3044172   0.3948166  )
        76        C      tau(  76) = (   0.1964894   0.1584522   0.4352927  )
        77        C      tau(  77) = (   0.3832988   0.7046882   0.3948166  )
        78        C      tau(  78) = (  -0.0723804  -0.2418188   0.4352927  )
        79        C      tau(  79) = (   0.5042245   0.0425840   0.0747547  )
        80        C      tau(  80) = (  -0.1933061   0.4202854   0.7553546  )
        81        C      tau(  81) = (   0.7730943   0.4428550   0.0747547  )
        82        C      tau(  82) = (  -0.4621760   0.0200144   0.7553546  )
        83        C      tau(  83) = (   0.5074079   0.6213217   0.3948166  )
        84        C      tau(  84) = (  -0.1964895  -0.1584523   0.4352927  )
        85        C      tau(  85) = (   0.2385380   0.2210507   0.3948166  )
        86        C      tau(  86) = (   0.0723803   0.2418187   0.4352927  )
        87        C      tau(  87) = (   0.4621758  -0.0200146   0.7553546  )
        88        C      tau(  88) = (  -0.1512574   0.4828840   0.0747547  )
        89        C      tau(  89) = (   0.1933060  -0.4202856   0.7553546  )
        90        C      tau(  90) = (   0.1176124   0.8831550   0.0747547  )
        91        N      tau(  91) = (   0.0836151   0.3616153   0.3783414  )
        92        N      tau(  92) = (   0.1143939   0.8488170   0.1322273  )
        93        N      tau(  93) = (   0.4316049  -0.0359794   0.6978820  )
        94        N      tau(  94) = (   0.5382218   0.5641235   0.3783414  )
        95        N      tau(  95) = (   0.5324850   0.3140388   0.4540772  )
        96        N      tau(  96) = (   0.3769338  -0.2531939   0.5631968  )
        97        O      tau(  97) = (   0.4885547   0.3435477   0.3121369  )
        98        O      tau(  98) = (  -0.1776363   0.1193217   0.5179724  )
        99        O      tau(  99) = (   0.2591077  -0.1740478   0.6161179  )
       100        O      tau( 100) = (   0.0518107   0.6369172   0.2139914  )
       101        O      tau( 101) = (   0.1332821   0.5821912   0.3121369  )
       102        O      tau( 102) = (   0.1776362  -0.1193218   0.5179724  )
       103        O      tau( 103) = (   0.5700262   0.2888217   0.2139914  )
       104        O      tau( 104) = (  -0.2591078   0.1740476   0.6161179  )
       105        O      tau( 105) = (   0.4060787   0.3080567   0.1653171  )
       106        O      tau( 106) = (  -0.0951603   0.1548126   0.6647922  )
       107        O      tau( 107) = (   0.4902207   0.4333203   0.1653171  )
       108        O      tau( 108) = (  -0.1793023   0.0295490   0.6647922  )
       109        O      tau( 109) = (   0.0951602  -0.1548128   0.6647922  )
       110        O      tau( 110) = (   0.2157581   0.6176822   0.1653171  )
       111        O      tau( 111) = (   0.1793022  -0.0295492   0.6647922  )
       112        O      tau( 112) = (   0.1316162   0.4924186   0.1653171  )
       113        O      tau( 113) = (   0.3179808   0.3491619   0.3116761  )
       114        O      tau( 114) = (  -0.0070624   0.1137075   0.5184331  )
       115        O      tau( 115) = (   0.4188527   0.4993315   0.3116761  )
       116        O      tau( 116) = (  -0.1079343  -0.0364622   0.5184331  )
       117        O      tau( 117) = (   0.2082893  -0.2488758   0.7608433  )
       118        O      tau( 118) = (   0.1026291   0.7117451   0.0692660  )
       119        O      tau( 119) = (   0.3091612  -0.0987061   0.7608433  )
       120        O      tau( 120) = (   0.0017572   0.5615755   0.0692660  )
       121        O      tau( 121) = (   0.3038560   0.5765770   0.3116761  )
       122        O      tau( 122) = (   0.0070623  -0.1137077   0.5184331  )
       123        O      tau( 123) = (   0.2029841   0.4264074   0.3116761  )
       124        O      tau( 124) = (   0.1079342   0.0364620   0.5184331  )
       125        O      tau( 125) = (   0.6200797   0.3641635   0.0692660  )
       126        O      tau( 126) = (  -0.3091613   0.0987059   0.7608433  )
       127        O      tau( 127) = (   0.5192078   0.2139938   0.0692660  )
       128        O      tau( 128) = (  -0.2082894   0.2488756   0.7608433  )
       129        O      tau( 129) = (   0.3109184   0.4628695   0.1822007  )
       130        O      tau( 130) = (  -0.0000001  -0.0000001   0.6479086  )
       131        O      tau( 131) = (   0.4621650   0.3612743   0.0000000  )
       132        O      tau( 132) = (   0.1596719   0.5644647   0.0000000  )

     --------------------------------------------
     DFT-D3 Dispersion Correction (3-body terms):
     --------------------------------------------
       Reference C6 values for interpolation: 

         atom   Coordination number   C6
         H          0.912             6.05
         H          0.000            15.18
         C          0.000            98.23
         C          0.987            86.49
         C          1.998            58.72
         C          2.999            51.56
         C          3.984            36.41
         N          0.000            50.54
         N          0.994            44.25
         N          2.014            39.35
         N          2.990            31.16
         O          0.000            31.01
         O          0.993            25.63
         O          1.989            20.74
         Ti         0.000          2723.84
         Ti         1.830           604.00
         Ti         3.868           643.18

       Values used:

         atom   Coordination number  R0_AB[au]  C6      C8
         Ti         7.249            3.557    643.18  76289.64
         Ti         7.250            3.557    643.18  76289.64
         Ti         7.250            3.557    643.18  76289.64
         Ti         7.253            3.557    643.18  76289.64
         Ti         7.253            3.557    643.18  76289.64
         Ti         7.254            3.557    643.18  76289.64
         Ti         7.249            3.557    643.18  76289.64
         Ti         7.254            3.557    643.18  76289.64
         H          1.004            2.062      6.18     74.67
         H          1.005            2.062      6.18     74.66
         H          1.004            2.062      6.18     74.67
         H          1.004            2.062      6.18     74.67
         H          1.005            2.062      6.18     74.66
         H          1.005            2.062      6.18     74.66
         H          1.004            2.062      6.18     74.67
         H          1.004            2.062      6.18     74.67
         H          1.004            2.062      6.18     74.67
         H          1.004            2.062      6.18     74.67
         H          1.005            2.062      6.18     74.66
         H          1.004            2.062      6.18     74.67
         H          1.062            2.062      6.14     74.16
         H          1.062            2.062      6.14     74.16
         H          1.062            2.062      6.14     74.16
         H          1.062            2.062      6.14     74.16
         H          1.004            2.062      6.18     74.67
         H          1.005            2.062      6.18     74.67
         H          1.005            2.062      6.18     74.67
         H          1.004            2.062      6.18     74.67
         H          1.004            2.062      6.18     74.67
         H          1.004            2.062      6.18     74.67
         H          1.085            2.062      6.12     74.01
         H          1.087            2.062      6.12     74.00
         H          1.090            2.062      6.12     73.98
         H          1.085            2.062      6.12     74.01
         H          1.085            2.062      6.12     74.01
         H          1.087            2.062      6.12     74.00
         H          1.085            2.062      6.12     74.01
         H          1.085            2.062      6.12     74.01
         H          1.085            2.062      6.12     74.01
         H          1.086            2.062      6.12     74.00
         H          1.085            2.062      6.12     74.01
         H          1.086            2.062      6.12     74.01
         C          3.355            2.750     47.39   1370.50
         C          3.343            2.750     47.65   1378.12
         C          3.354            2.750     47.39   1370.52
         C          3.344            2.750     47.64   1377.88
         C          3.358            2.750     47.31   1368.20
         C          3.188            2.750     50.18   1451.41
         C          3.358            2.750     47.31   1368.21
         C          3.188            2.750     50.18   1451.36
         C          3.189            2.750     50.17   1451.08
         C          3.165            2.750     50.40   1457.78
         C          3.189            2.750     50.17   1451.07
         C          3.165            2.750     50.40   1457.75
         C          3.329            2.750     47.96   1387.09
         C          3.166            2.750     50.40   1457.60
         C          3.166            2.750     50.40   1457.61
         C          3.329            2.750     47.96   1387.16
         C          3.360            2.750     47.26   1366.87
         C          3.188            2.750     50.18   1451.39
         C          3.360            2.750     47.26   1366.89
         C          3.188            2.750     50.18   1451.40
         C          3.188            2.750     50.18   1451.38
         C          3.360            2.750     47.26   1366.84
         C          3.360            2.750     47.26   1366.85
         C          3.188            2.750     50.18   1451.39
         C          3.223            2.750     49.78   1439.81
         C          3.212            2.750     49.92   1443.76
         C          3.223            2.750     49.78   1439.83
         C          3.212            2.750     49.92   1443.77
         C          3.212            2.750     49.92   1443.74
         C          3.223            2.750     49.78   1439.78
         C          3.223            2.750     49.78   1439.80
         C          3.212            2.750     49.92   1443.76
         C          3.189            2.750     50.17   1451.10
         C          3.165            2.750     50.40   1457.77
         C          3.166            2.750     50.40   1457.60
         C          3.328            2.750     47.99   1387.88
         C          3.328            2.750     47.99   1387.83
         C          3.166            2.750     50.40   1457.60
         C          3.166            2.750     50.40   1457.60
         C          3.328            2.750     47.99   1387.84
         C          3.189            2.750     50.17   1451.08
         C          3.165            2.750     50.40   1457.78
         C          3.166            2.750     50.40   1457.59
         C          3.328            2.750     47.99   1387.87
         C          3.189            2.750     50.17   1451.08
         C          3.165            2.750     50.40   1457.77
         C          3.165            2.750     50.40   1457.76
         C          3.189            2.750     50.17   1451.10
         N          3.369            2.478     31.17    687.68
         N          3.369            2.478     31.17    687.68
         N          3.370            2.478     31.17    687.68
         N          3.370            2.478     31.17    687.68
         N          3.368            2.478     31.17    687.69
         N          3.368            2.478     31.17    687.69
         O          2.054            2.345     20.79    419.59
         O          2.041            2.345     20.80    419.70
         O          2.054            2.345     20.79    419.59
         O          2.042            2.345     20.80    419.69
         O          2.042            2.345     20.80    419.69
         O          2.041            2.345     20.80    419.70
         O          2.041            2.345     20.80    419.70
         O          2.041            2.345     20.80    419.70
         O          2.010            2.345     20.81    420.01
         O          2.010            2.345     20.81    420.01
         O          2.010            2.345     20.81    420.01
         O          2.010            2.345     20.81    420.01
         O          2.010            2.345     20.81    420.01
         O          2.010            2.345     20.81    420.01
         O          2.010            2.345     20.81    420.01
         O          2.010            2.345     20.81    420.01
         O          2.019            2.345     20.81    419.92
         O          2.018            2.345     20.81    419.92
         O          2.031            2.345     20.80    419.79
         O          2.018            2.345     20.81    419.92
         O          2.018            2.345     20.81    419.92
         O          2.033            2.345     20.80    419.77
         O          2.032            2.345     20.80    419.78
         O          2.018            2.345     20.81    419.92
         O          2.018            2.345     20.81    419.92
         O          2.018            2.345     20.81    419.92
         O          2.031            2.345     20.80    419.79
         O          2.018            2.345     20.81    419.92
         O          2.018            2.345     20.81    419.92
         O          2.018            2.345     20.81    419.92
         O          2.018            2.345     20.81    419.92
         O          2.018            2.345     20.81    419.92
         O          2.940            2.345     20.74    418.58
         O          2.940            2.345     20.74    418.58
         O          2.940            2.345     20.74    418.58
         O          2.940            2.345     20.74    418.58

         Molecular C6 ( Ry / a.u.^6 ) =    656875.52


   Crystallographic axes

     site n.     atom                  positions (cryst. coord.)
         1        Ti     tau(   1) = (  0.2898400  0.5718700  0.8617100  )
         2        Ti     tau(   2) = (  0.7101600  0.4281300  0.1382900  )
         3        Ti     tau(   3) = (  0.4281300  0.2898400  0.7179700  )
         4        Ti     tau(   4) = (  0.5718700  0.7101600  0.2820300  )
         5        Ti     tau(   5) = (  0.4281300  0.7101600  0.1382900  )
         6        Ti     tau(   6) = (  0.5718700  0.2898400  0.8617100  )
         7        Ti     tau(   7) = (  0.2898400  0.4281300  0.7179700  )
         8        Ti     tau(   8) = (  0.7101600  0.5718700  0.2820300  )
         9        H      tau(   9) = (  0.5407790  0.3814900  0.5442270  )
        10        H      tau(  10) = (  0.1627370  0.0034480  0.5442270  )
        11        H      tau(  11) = (  0.8372630  0.9965520  0.4557730  )
        12        H      tau(  12) = (  0.3814900  0.8372630  0.8407110  )
        13        H      tau(  13) = (  0.6185100  0.1627370  0.1592890  )
        14        H      tau(  14) = (  0.0034480  0.4592210  0.8407110  )
        15        H      tau(  15) = (  0.9965520  0.5407790  0.1592890  )
        16        H      tau(  16) = (  0.4592210  0.0034480  0.8407110  )
        17        H      tau(  17) = (  0.1627370  0.6185100  0.1592890  )
        18        H      tau(  18) = (  0.6185100  0.4592210  0.4557730  )
        19        H      tau(  19) = (  0.3814900  0.5407790  0.5442270  )
        20        H      tau(  20) = (  0.0034480  0.1627370  0.5442270  )
        21        H      tau(  21) = (  0.4261960  0.5738040  0.0000000  )
        22        H      tau(  22) = (  0.5738040  0.4261960  0.0000000  )
        23        H      tau(  23) = (  0.4261960  0.4261960  0.8523920  )
        24        H      tau(  24) = (  0.5738040  0.5738040  0.1476080  )
        25        H      tau(  25) = (  0.3872650  0.0657260  0.4529910  )
        26        H      tau(  26) = (  0.6127350  0.9342740  0.5470090  )
        27        H      tau(  27) = (  0.0657260  0.6127350  0.6784610  )
        28        H      tau(  28) = (  0.9342740  0.3872650  0.3215390  )
        29        H      tau(  29) = (  0.0657260  0.3872650  0.4529910  )
        30        H      tau(  30) = (  0.3872650  0.9342740  0.3215390  )
        31        H      tau(  31) = (  0.4571728  0.6827839  0.4756814  )
        32        H      tau(  32) = (  0.4333754  0.6375113  0.4039967  )
        33        H      tau(  33) = (  0.5345376  0.9561584  0.1956934  )
        34        H      tau(  34) = (  0.5749142  0.0329715  0.2340536  )
        35        H      tau(  35) = (  0.7916517  0.3626057  0.7708840  )
        36        H      tau(  36) = (  0.7677313  0.3170991  0.7993690  )
        37        H      tau(  37) = (  0.9934455  0.7775618  0.4078085  )
        38        H      tau(  38) = (  0.9956844  0.7818212  0.4718696  )
        39        H      tau(  39) = (  0.9042145  0.6396123  0.5863292  )
        40        H      tau(  40) = (  0.9173326  0.6645683  0.5393985  )
        41        H      tau(  41) = (  0.6335939  0.0540386  0.7371065  )
        42        H      tau(  42) = (  0.6705867  0.1244143  0.7455270  )
        43        C      tau(  43) = (  0.8485530  0.5000000  0.3485530  )
        44        C      tau(  44) = (  0.1514470  0.5000000  0.6514470  )
        45        C      tau(  45) = (  0.5000000  0.1514470  0.6514470  )
        46        C      tau(  46) = (  0.5000000  0.8485530  0.3485530  )
        47        C      tau(  47) = (  0.9267120  0.5000000  0.4267120  )
        48        C      tau(  48) = (  0.0732880  0.5000000  0.5732880  )
        49        C      tau(  49) = (  0.5000000  0.0732880  0.5732880  )
        50        C      tau(  50) = (  0.5000000  0.9267120  0.4267120  )
        51        C      tau(  51) = (  0.9635450  0.5637160  0.5272610  )
        52        C      tau(  52) = (  0.0364550  0.4362840  0.4727390  )
        53        C      tau(  53) = (  0.5637160  0.0364550  0.6001710  )
        54        C      tau(  54) = (  0.4362840  0.9635450  0.3998290  )
        55        C      tau(  55) = (  0.5637160  0.9635450  0.5272610  )
        56        C      tau(  56) = (  0.4362840  0.0364550  0.4727390  )
        57        C      tau(  57) = (  0.9635450  0.4362840  0.3998290  )
        58        C      tau(  58) = (  0.0364550  0.5637160  0.6001710  )
        59        C      tau(  59) = (  0.5434910  0.5434910  0.4509660  )
        60        C      tau(  60) = (  0.4565090  0.4565090  0.5490340  )
        61        C      tau(  61) = (  0.9074750  0.9074750  0.4509660  )
        62        C      tau(  62) = (  0.0925250  0.0925250  0.5490340  )
        63        C      tau(  63) = (  0.5434910  0.0925250  0.0000000  )
        64        C      tau(  64) = (  0.4565090  0.9074750  0.0000000  )
        65        C      tau(  65) = (  0.9074750  0.4565090  0.0000000  )
        66        C      tau(  66) = (  0.0925250  0.5434910  0.0000000  )
        67        C      tau(  67) = (  0.5886690  0.5886690  0.3971880  )
        68        C      tau(  68) = (  0.4113310  0.4113310  0.6028120  )
        69        C      tau(  69) = (  0.8085190  0.8085190  0.3971880  )
        70        C      tau(  70) = (  0.1914810  0.1914810  0.6028120  )
        71        C      tau(  71) = (  0.5886690  0.1914810  0.0000000  )
        72        C      tau(  72) = (  0.4113310  0.8085190  0.0000000  )
        73        C      tau(  73) = (  0.8085190  0.4113310  0.0000000  )
        74        C      tau(  74) = (  0.1914810  0.5886690  0.0000000  )
        75        C      tau(  75) = (  0.4765930  0.5666470  0.4756200  )
        76        C      tau(  76) = (  0.5234070  0.4333530  0.5243800  )
        77        C      tau(  77) = (  0.9089730  0.9990270  0.4756200  )
        78        C      tau(  78) = (  0.0910270  0.0009730  0.5243800  )
        79        C      tau(  79) = (  0.5666470  0.0910270  0.0900540  )
        80        C      tau(  80) = (  0.4333530  0.9089730  0.9099460  )
        81        C      tau(  81) = (  0.9990270  0.5234070  0.0900540  )
        82        C      tau(  82) = (  0.0009730  0.4765930  0.9099460  )
        83        C      tau(  83) = (  0.9990270  0.9089730  0.4756200  )
        84        C      tau(  84) = (  0.0009730  0.0910270  0.5243800  )
        85        C      tau(  85) = (  0.5666470  0.4765930  0.4756200  )
        86        C      tau(  86) = (  0.4333530  0.5234070  0.5243800  )
        87        C      tau(  87) = (  0.9089730  0.4333530  0.9099460  )
        88        C      tau(  88) = (  0.0910270  0.5666470  0.0900540  )
        89        C      tau(  89) = (  0.4765930  0.0009730  0.9099460  )
        90        C      tau(  90) = (  0.5234070  0.9990270  0.0900540  )
        91        N      tau(  91) = (  0.4592210  0.6185100  0.4557730  )
        92        N      tau(  92) = (  0.5407790  0.9965520  0.1592890  )
        93        N      tau(  93) = (  0.8372630  0.3814900  0.8407110  )
        94        N      tau(  94) = (  0.9965520  0.8372630  0.4557730  )
        95        N      tau(  95) = (  0.9342740  0.6127350  0.5470090  )
        96        N      tau(  96) = (  0.6127350  0.0657260  0.6784610  )
        97        O      tau(  97) = (  0.8169030  0.5591160  0.3760190  )
        98        O      tau(  98) = (  0.1830970  0.4408840  0.6239810  )
        99        O      tau(  99) = (  0.5591160  0.1830970  0.7422130  )
       100        O      tau( 100) = (  0.4408840  0.8169030  0.2577870  )
       101        O      tau( 101) = (  0.5591160  0.8169030  0.3760190  )
       102        O      tau( 102) = (  0.4408840  0.1830970  0.6239810  )
       103        O      tau( 103) = (  0.8169030  0.4408840  0.2577870  )
       104        O      tau( 104) = (  0.1830970  0.5591160  0.7422130  )
       105        O      tau( 105) = (  0.6314950  0.4323440  0.1991510  )
       106        O      tau( 106) = (  0.3685050  0.5676560  0.8008490  )
       107        O      tau( 107) = (  0.7668070  0.5676560  0.1991510  )
       108        O      tau( 108) = (  0.2331930  0.4323440  0.8008490  )
       109        O      tau( 109) = (  0.4323440  0.2331930  0.8008490  )
       110        O      tau( 110) = (  0.5676560  0.7668070  0.1991510  )
       111        O      tau( 111) = (  0.5676560  0.3685050  0.8008490  )
       112        O      tau( 112) = (  0.4323440  0.6314950  0.1991510  )
       113        O      tau( 113) = (  0.6483450  0.5649030  0.3754640  )
       114        O      tau( 114) = (  0.3516550  0.4350970  0.6245360  )
       115        O      tau( 115) = (  0.8105610  0.7271190  0.3754640  )
       116        O      tau( 116) = (  0.1894390  0.2728810  0.6245360  )
       117        O      tau( 117) = (  0.5649030  0.1894390  0.9165580  )
       118        O      tau( 118) = (  0.4350970  0.8105610  0.0834420  )
       119        O      tau( 119) = (  0.7271190  0.3516550  0.9165580  )
       120        O      tau( 120) = (  0.2728810  0.6483450  0.0834420  )
       121        O      tau( 121) = (  0.7271190  0.8105610  0.3754640  )
       122        O      tau( 122) = (  0.2728810  0.1894390  0.6245360  )
       123        O      tau( 123) = (  0.5649030  0.6483450  0.3754640  )
       124        O      tau( 124) = (  0.4350970  0.3516550  0.6245360  )
       125        O      tau( 125) = (  0.8105610  0.4350970  0.0834420  )
       126        O      tau( 126) = (  0.1894390  0.5649030  0.9165580  )
       127        O      tau( 127) = (  0.6483450  0.2728810  0.0834420  )
       128        O      tau( 128) = (  0.3516550  0.7271190  0.9165580  )
       129        O      tau( 129) = (  0.6097450  0.6097450  0.2194900  )
       130        O      tau( 130) = (  0.3902550  0.3902550  0.7805100  )
       131        O      tau( 131) = (  0.6097450  0.3902550  0.0000000  )
       132        O      tau( 132) = (  0.3902550  0.6097450  0.0000000  )

     number of k points=     8
                       cart. coord. in units 2pi/alat
        k(    1) = (   0.0000000   0.0000000   0.0000000), wk =   0.2500000
        k(    2) = (   0.0000000   0.0000000  -0.6023303), wk =   0.2500000
        k(    3) = (   0.0000000  -0.5401090  -0.3011652), wk =   0.2500000
        k(    4) = (   0.0000000  -0.5401090  -0.9034956), wk =   0.2500000
        k(    5) = (  -0.5000000  -0.2042493  -0.3011652), wk =   0.2500000
        k(    6) = (  -0.5000000  -0.2042493  -0.9034956), wk =   0.2500000
        k(    7) = (  -0.5000000  -0.7443584  -0.6023305), wk =   0.2500000
        k(    8) = (  -0.5000000  -0.7443584  -1.2046608), wk =   0.2500000

                       cryst. coord.
        k(    1) = (   0.0000000   0.0000000   0.0000000), wk =   0.2500000
        k(    2) = (   0.0000000   0.0000000  -0.5000000), wk =   0.2500000
        k(    3) = (   0.0000000  -0.5000000   0.0000000), wk =   0.2500000
        k(    4) = (   0.0000000  -0.5000000  -0.5000000), wk =   0.2500000
        k(    5) = (  -0.5000000   0.0000000  -0.0000000), wk =   0.2500000
        k(    6) = (  -0.5000000   0.0000000  -0.5000000), wk =   0.2500000
        k(    7) = (  -0.5000000  -0.5000000   0.0000000), wk =   0.2500000
        k(    8) = (  -0.5000000  -0.5000000  -0.5000000), wk =   0.2500000

     Dense  grid:  1762151 G-vectors     FFT dimensions: ( 180, 180, 180)

     Smooth grid:   761105 G-vectors     FFT dimensions: ( 125, 125, 125)

     Dynamical RAM for                 wfc:      12.49 MB

     Dynamical RAM for     wfc (w. buffer):     112.44 MB

     Dynamical RAM for           str. fact:       4.07 MB

     Dynamical RAM for           local pot:       0.00 MB

     Dynamical RAM for          nlocal pot:      41.00 MB

     Dynamical RAM for                qrad:       6.72 MB

     Dynamical RAM for          rho,v,vnew:       6.89 MB

     Dynamical RAM for               rhoin:       2.30 MB

     Dynamical RAM for            rho*nmix:      13.04 MB

     Dynamical RAM for           G-vectors:       3.23 MB

     Dynamical RAM for          h,s,v(r/c):       1.64 MB

     Dynamical RAM for          <psi|beta>:       4.04 MB

     Dynamical RAM for                 psi:      24.99 MB

     Dynamical RAM for                hpsi:      24.99 MB

     Dynamical RAM for                spsi:      24.99 MB

     Dynamical RAM for      wfcinit/wfcrot:      46.85 MB

     Dynamical RAM for           addusdens:     190.67 MB

     Estimated static dynamical RAM per process >     188.96 MB

     Estimated max dynamical RAM per process >     392.67 MB

     Estimated total dynamical RAM >      12.65 GB

     Check: negative core charge=   -0.000003

     Initial potential from superposition of free atoms

     starting charge     559.9972, renormalised to     568.0000

     negative rho (up, down):  9.869E-03 0.000E+00
     Starting wfcs are  474 randomized atomic wfcs
     Checking if some PAW data can be deallocated... 
       PAW data deallocated on   20 nodes for type:  3
       PAW data deallocated on   24 nodes for type:  5

     total cpu time spent up to now is      110.8 secs

     Self-consistent Calculation

     iteration #  1     ecut=    40.00 Ry     beta= 0.40
     Davidson diagonalization with overlap

---- Real-time Memory Report at c_bands before calling an iterative solver
           261 MiB given to the printing process from OS
             0 MiB allocation reported by mallinfo(arena+hblkhd)
           652 MiB available memory on the node where the printing process lives
------------------
     ethr =  1.00E-02,  avg # of iterations =  2.0

     negative rho (up, down):  2.812E-03 0.000E+00

     total cpu time spent up to now is      388.2 secs

     total energy              =   -3377.01462412 Ry
     estimated scf accuracy    <     222.58733441 Ry

     iteration #  2     ecut=    40.00 Ry     beta= 0.40
     Davidson diagonalization with overlap

---- Real-time Memory Report at c_bands before calling an iterative solver
           391 MiB given to the printing process from OS
             0 MiB allocation reported by mallinfo(arena+hblkhd)
         20889 MiB available memory on the node where the printing process lives
------------------
     ethr =  1.00E-02,  avg # of iterations = 12.0

     negative rho (up, down):  4.152E-03 0.000E+00

     total cpu time spent up to now is     1138.0 secs

     total energy              =   -3303.98296502 Ry
     estimated scf accuracy    <    2495.09400369 Ry

     iteration #  3     ecut=    40.00 Ry     beta= 0.40
     Davidson diagonalization with overlap

---- Real-time Memory Report at c_bands before calling an iterative solver
           393 MiB given to the printing process from OS
             0 MiB allocation reported by mallinfo(arena+hblkhd)
         20879 MiB available memory on the node where the printing process lives
------------------
     ethr =  1.00E-02,  avg # of iterations = 11.2

     negative rho (up, down):  5.013E-03 0.000E+00

     total cpu time spent up to now is     1838.4 secs

     total energy              =   -3494.15945631 Ry
     estimated scf accuracy    <     116.48493739 Ry

     iteration #  4     ecut=    40.00 Ry     beta= 0.40
     Davidson diagonalization with overlap

---- Real-time Memory Report at c_bands before calling an iterative solver
           395 MiB given to the printing process from OS
             0 MiB allocation reported by mallinfo(arena+hblkhd)
         20843 MiB available memory on the node where the printing process lives
------------------
     ethr =  1.00E-02,  avg # of iterations =  6.8

     negative rho (up, down):  5.484E-03 0.000E+00

     total cpu time spent up to now is     2080.7 secs

     total energy              =   -3503.82031949 Ry
     estimated scf accuracy    <      25.87213124 Ry

     iteration #  5     ecut=    40.00 Ry     beta= 0.40
     Davidson diagonalization with overlap

---- Real-time Memory Report at c_bands before calling an iterative solver
           396 MiB given to the printing process from OS
             0 MiB allocation reported by mallinfo(arena+hblkhd)
         20811 MiB available memory on the node where the printing process lives
------------------
     ethr =  4.55E-03,  avg # of iterations =  2.0

     negative rho (up, down):  7.554E-03 0.000E+00

     total cpu time spent up to now is     2259.6 secs

     total energy              =   -3498.14898375 Ry
     estimated scf accuracy    <      14.83896224 Ry

     iteration #  6     ecut=    40.00 Ry     beta= 0.40
     Davidson diagonalization with overlap

---- Real-time Memory Report at c_bands before calling an iterative solver
           397 MiB given to the printing process from OS
             0 MiB allocation reported by mallinfo(arena+hblkhd)
         20777 MiB available memory on the node where the printing process lives
------------------
     c_bands:  1 eigenvalues not converged
     c_bands:  4 eigenvalues not converged
     c_bands:  1 eigenvalues not converged
     c_bands:  1 eigenvalues not converged
     ethr =  2.61E-03,  avg # of iterations = 18.0

     negative rho (up, down):  8.049E-03 0.000E+00

     total cpu time spent up to now is     2521.2 secs

     total energy              =   -3501.15516343 Ry
     estimated scf accuracy    <      40.06717392 Ry

     iteration #  7     ecut=    40.00 Ry     beta= 0.40
     Davidson diagonalization with overlap

---- Real-time Memory Report at c_bands before calling an iterative solver
           398 MiB given to the printing process from OS
             0 MiB allocation reported by mallinfo(arena+hblkhd)
         20740 MiB available memory on the node where the printing process lives
------------------
     ethr =  2.61E-03,  avg # of iterations =  6.6

     negative rho (up, down):  8.531E-03 0.000E+00

     total cpu time spent up to now is     2704.1 secs

     total energy              =   -3499.08936960 Ry
     estimated scf accuracy    <      27.50908176 Ry

     iteration #  8     ecut=    40.00 Ry     beta= 0.40
     Davidson diagonalization with overlap

---- Real-time Memory Report at c_bands before calling an iterative solver
           399 MiB given to the printing process from OS
             0 MiB allocation reported by mallinfo(arena+hblkhd)
         20705 MiB available memory on the node where the printing process lives
------------------
     ethr =  2.61E-03,  avg # of iterations = 11.4

     negative rho (up, down):  9.100E-03 0.000E+00

     total cpu time spent up to now is     2899.2 secs

     total energy              =   -3499.84901882 Ry
     estimated scf accuracy    <       2.84690709 Ry

     iteration #  9     ecut=    40.00 Ry     beta= 0.40
     Davidson diagonalization with overlap

---- Real-time Memory Report at c_bands before calling an iterative solver
           400 MiB given to the printing process from OS
             0 MiB allocation reported by mallinfo(arena+hblkhd)
         20672 MiB available memory on the node where the printing process lives
------------------
     ethr =  5.01E-04,  avg # of iterations =  6.0

     negative rho (up, down):  1.007E-02 0.000E+00

     total cpu time spent up to now is     3135.0 secs

     total energy              =   -3500.74565111 Ry
     estimated scf accuracy    <       0.61968996 Ry

     iteration # 10     ecut=    40.00 Ry     beta= 0.40
     Davidson diagonalization with overlap

---- Real-time Memory Report at c_bands before calling an iterative solver
           401 MiB given to the printing process from OS
             0 MiB allocation reported by mallinfo(arena+hblkhd)
         20635 MiB available memory on the node where the printing process lives
------------------
     ethr =  1.09E-04,  avg # of iterations =  4.6

     negative rho (up, down):  1.088E-02 0.000E+00

     total cpu time spent up to now is     3340.2 secs

     total energy              =   -3500.77362311 Ry
     estimated scf accuracy    <       0.27048227 Ry

     iteration # 11     ecut=    40.00 Ry     beta= 0.40
     Davidson diagonalization with overlap

---- Real-time Memory Report at c_bands before calling an iterative solver
           401 MiB given to the printing process from OS
             0 MiB allocation reported by mallinfo(arena+hblkhd)
         20635 MiB available memory on the node where the printing process lives
------------------
     ethr =  4.76E-05,  avg # of iterations =  3.4

     negative rho (up, down):  1.205E-02 0.000E+00

     total cpu time spent up to now is     3539.3 secs

     total energy              =   -3500.74636889 Ry
     estimated scf accuracy    <       0.17690920 Ry

     iteration # 12     ecut=    40.00 Ry     beta= 0.40
     Davidson diagonalization with overlap

---- Real-time Memory Report at c_bands before calling an iterative solver
           401 MiB given to the printing process from OS
             0 MiB allocation reported by mallinfo(arena+hblkhd)
         20636 MiB available memory on the node where the printing process lives
------------------
     ethr =  3.11E-05,  avg # of iterations =  6.0

     negative rho (up, down):  1.142E-02 0.000E+00

     total cpu time spent up to now is     3762.6 secs

     total energy              =   -3500.75332467 Ry
     estimated scf accuracy    <       0.09774266 Ry

     iteration # 13     ecut=    40.00 Ry     beta= 0.40
     Davidson diagonalization with overlap

---- Real-time Memory Report at c_bands before calling an iterative solver
           401 MiB given to the printing process from OS
             0 MiB allocation reported by mallinfo(arena+hblkhd)
         20635 MiB available memory on the node where the printing process lives
------------------
     ethr =  1.72E-05,  avg # of iterations =  5.5

     negative rho (up, down):  1.128E-02 0.000E+00

     total cpu time spent up to now is     3949.5 secs

     total energy              =   -3500.74840869 Ry
     estimated scf accuracy    <       0.04948270 Ry

     iteration # 14     ecut=    40.00 Ry     beta= 0.40
     Davidson diagonalization with overlap

---- Real-time Memory Report at c_bands before calling an iterative solver
           401 MiB given to the printing process from OS
             0 MiB allocation reported by mallinfo(arena+hblkhd)
         20635 MiB available memory on the node where the printing process lives
------------------
     ethr =  8.71E-06,  avg # of iterations =  5.6

     negative rho (up, down):  1.145E-02 0.000E+00

     total cpu time spent up to now is     4150.7 secs

     total energy              =   -3500.74844244 Ry
     estimated scf accuracy    <       0.01945166 Ry

     iteration # 15     ecut=    40.00 Ry     beta= 0.40
     Davidson diagonalization with overlap

---- Real-time Memory Report at c_bands before calling an iterative solver
           401 MiB given to the printing process from OS
             0 MiB allocation reported by mallinfo(arena+hblkhd)
         20635 MiB available memory on the node where the printing process lives
------------------
     ethr =  3.42E-06,  avg # of iterations =  5.5

     negative rho (up, down):  1.179E-02 0.000E+00

     total cpu time spent up to now is     4362.5 secs

     total energy              =   -3500.74863336 Ry
     estimated scf accuracy    <       0.00593621 Ry

     iteration # 16     ecut=    40.00 Ry     beta= 0.40
     Davidson diagonalization with overlap

---- Real-time Memory Report at c_bands before calling an iterative solver
           401 MiB given to the printing process from OS
             0 MiB allocation reported by mallinfo(arena+hblkhd)
         20635 MiB available memory on the node where the printing process lives
------------------
     ethr =  1.05E-06,  avg # of iterations =  5.5

     negative rho (up, down):  1.175E-02 0.000E+00

     total cpu time spent up to now is     4589.6 secs

     total energy              =   -3500.74906924 Ry
     estimated scf accuracy    <       0.00137531 Ry

     iteration # 17     ecut=    40.00 Ry     beta= 0.40
     Davidson diagonalization with overlap

---- Real-time Memory Report at c_bands before calling an iterative solver
           401 MiB given to the printing process from OS
             0 MiB allocation reported by mallinfo(arena+hblkhd)
         20636 MiB available memory on the node where the printing process lives
------------------
     ethr =  2.42E-07,  avg # of iterations =  6.0

     negative rho (up, down):  1.176E-02 0.000E+00

     total cpu time spent up to now is     4842.1 secs

     total energy              =   -3500.74935027 Ry
     estimated scf accuracy    <       0.00035245 Ry

     iteration # 18     ecut=    40.00 Ry     beta= 0.40
     Davidson diagonalization with overlap

---- Real-time Memory Report at c_bands before calling an iterative solver
           401 MiB given to the printing process from OS
             0 MiB allocation reported by mallinfo(arena+hblkhd)
         20635 MiB available memory on the node where the printing process lives
------------------
     ethr =  6.21E-08,  avg # of iterations =  5.0

     negative rho (up, down):  1.180E-02 0.000E+00

     total cpu time spent up to now is     5068.1 secs

     total energy              =   -3500.74937861 Ry
     estimated scf accuracy    <       0.00010346 Ry

     iteration # 19     ecut=    40.00 Ry     beta= 0.40
     Davidson diagonalization with overlap

---- Real-time Memory Report at c_bands before calling an iterative solver
           401 MiB given to the printing process from OS
             0 MiB allocation reported by mallinfo(arena+hblkhd)
         20636 MiB available memory on the node where the printing process lives
------------------
     ethr =  1.82E-08,  avg # of iterations =  6.0

     negative rho (up, down):  1.180E-02 0.000E+00

     total cpu time spent up to now is     5297.0 secs

     total energy              =   -3500.74939277 Ry
     estimated scf accuracy    <       0.00003015 Ry

     iteration # 20     ecut=    40.00 Ry     beta= 0.40
     Davidson diagonalization with overlap

---- Real-time Memory Report at c_bands before calling an iterative solver
           401 MiB given to the printing process from OS
             0 MiB allocation reported by mallinfo(arena+hblkhd)
         20633 MiB available memory on the node where the printing process lives
------------------
     ethr =  5.31E-09,  avg # of iterations =  5.0

     negative rho (up, down):  1.179E-02 0.000E+00

     total cpu time spent up to now is     5513.3 secs

     total energy              =   -3500.74939450 Ry
     estimated scf accuracy    <       0.00000787 Ry

     iteration # 21     ecut=    40.00 Ry     beta= 0.40
     Davidson diagonalization with overlap

---- Real-time Memory Report at c_bands before calling an iterative solver
           401 MiB given to the printing process from OS
             0 MiB allocation reported by mallinfo(arena+hblkhd)
         20636 MiB available memory on the node where the printing process lives
------------------
     ethr =  1.39E-09,  avg # of iterations =  5.0

     negative rho (up, down):  1.180E-02 0.000E+00

     total cpu time spent up to now is     5798.1 secs

     total energy              =   -3500.74939605 Ry
     estimated scf accuracy    <       0.00000262 Ry

     iteration # 22     ecut=    40.00 Ry     beta= 0.40
     Davidson diagonalization with overlap

---- Real-time Memory Report at c_bands before calling an iterative solver
           401 MiB given to the printing process from OS
             0 MiB allocation reported by mallinfo(arena+hblkhd)
         20634 MiB available memory on the node where the printing process lives
------------------
     ethr =  4.62E-10,  avg # of iterations =  5.0

     negative rho (up, down):  1.180E-02 0.000E+00

     total cpu time spent up to now is     6023.5 secs

     End of self-consistent calculation

          k = 0.0000 0.0000 0.0000 ( 95047 PWs)   bands (ev):

   -59.5631 -59.5134 -59.4806 -59.4294 -59.4151 -59.3651 -59.3647 -59.3137
   -36.0753 -35.9957 -35.9321 -35.8800 -35.8482 -35.8261 -35.8097 -35.7632
   -35.7439 -35.7201 -35.7135 -35.6935 -35.6794 -35.6527 -35.6414 -35.6307
   -35.6254 -35.6229 -35.6007 -35.5666 -35.5438 -35.5125 -35.4806 -35.4293
   -24.3743 -24.2527 -24.0916 -23.9133 -23.8066 -23.7607 -23.7357 -23.7060
   -23.6503 -23.6450 -23.6223 -23.5801 -22.9229 -22.8293 -22.7729 -22.7058
   -22.4747 -22.2416 -22.0626 -21.8701 -21.7162 -21.6166 -21.4601 -21.4497
   -21.4196 -21.4099 -21.4020 -21.3859 -21.3759 -21.3663 -21.3510 -21.3467
   -21.3003 -21.2954 -19.2980 -19.1992 -19.1392 -19.0718 -19.0702 -18.9676
   -18.9080 -18.8418 -18.4007 -18.1074 -17.9167 -17.8772 -17.8634 -17.8467
   -16.7520 -16.5521 -16.4125 -16.4092 -16.2531 -16.1786 -16.1277 -15.8797
   -15.6449 -15.6360 -15.6230 -15.5789 -14.2044 -13.9118 -13.7182 -13.7135
   -13.6764 -13.6631 -13.6577 -13.4057 -13.1925 -13.1464 -13.1313 -13.0732
   -11.8113 -11.5358 -11.5005 -11.3557 -11.3231 -11.2931 -11.2884 -11.2431
   -11.0221 -10.9877 -10.9480 -10.9320 -10.3722 -10.0880  -9.9670  -9.9079
    -9.8349  -9.7878  -9.7257  -9.5815  -9.4616  -9.3944  -9.3596  -9.3267
    -9.2930  -9.2693  -9.2572  -9.2125  -9.2036  -9.1781  -9.0896  -9.0584
    -9.0425  -9.0068  -8.9274  -8.9081  -8.8881  -8.8704  -8.8263  -8.7976
    -8.7681  -8.7064  -8.6784  -8.6622  -8.6273  -8.5814  -8.5679  -8.5079
    -8.4354  -8.3976  -8.3820  -8.3278  -8.2636  -8.2424  -8.2115  -8.1930
    -8.1342  -8.1004  -8.0727  -7.9145  -7.8035  -7.7154  -7.6753  -7.6662
    -7.6042  -7.5925  -7.5744  -7.4941  -7.4388  -7.4110  -7.2864  -7.2483
    -7.0975  -7.0878  -7.0812  -7.0213  -6.9712  -6.6710  -6.5178  -6.3979
    -6.3845  -6.3769  -6.3299  -6.3023  -6.2524  -6.2266  -6.1270  -6.0314
    -5.9593  -5.9421  -5.9247  -5.8647  -5.8216  -5.7697  -5.7425  -5.7254
    -5.6728  -5.6505  -5.6230  -5.5743  -5.5503  -5.5072  -5.4574  -5.4336
    -5.3999  -5.3765  -5.3477  -5.3348  -5.3148  -5.2815  -5.2613  -5.2394
    -5.2219  -5.1812  -5.0881  -5.0480  -4.9896  -4.9278  -4.8897  -4.7878
    -4.7774  -4.7710  -4.7242  -4.7096  -4.6597  -4.6225  -4.5492  -4.5260
    -4.5009  -4.4597  -4.4122  -4.3984  -4.3307  -4.3042  -4.2826  -4.2604
    -4.2401  -4.1759  -4.1611  -4.1073  -4.0827  -4.0539  -4.0460  -4.0227
    -3.9860  -3.9713  -3.9546  -3.9174  -3.8897  -3.8512  -3.8451  -3.8255
    -3.7155  -3.6178  -3.5796  -3.5653  -3.5427  -3.5173  -3.5019  -3.4081
    -3.3338  -3.2910  -3.2733  -3.2576  -3.2370  -3.2216  -3.1691  -3.1611
    -3.0899  -3.0753  -3.0013  -2.9736  -2.7920  -2.4048  -2.2241  -1.9070
    -1.7231  -1.6814  -1.6714  -1.5254

     occupation numbers 
     1.0000   1.0000   1.0000   1.0000   1.0000   1.0000   1.0000   1.0000
     1.0000   1.0000   1.0000   1.0000   1.0000   1.0000   1.0000   1.0000
     1.0000   1.0000   1.0000   1.0000   1.0000   1.0000   1.0000   1.0000
     1.0000   1.0000   1.0000   1.0000   1.0000   1.0000   1.0000   1.0000
     1.0000   1.0000   1.0000   1.0000   1.0000   1.0000   1.0000   1.0000
     1.0000   1.0000   1.0000   1.0000   1.0000   1.0000   1.0000   1.0000
     1.0000   1.0000   1.0000   1.0000   1.0000   1.0000   1.0000   1.0000
     1.0000   1.0000   1.0000   1.0000   1.0000   1.0000   1.0000   1.0000
     1.0000   1.0000   1.0000   1.0000   1.0000   1.0000   1.0000   1.0000
     1.0000   1.0000   1.0000   1.0000   1.0000   1.0000   1.0000   1.0000
     1.0000   1.0000   1.0000   1.0000   1.0000   1.0000   1.0000   1.0000
     1.0000   1.0000   1.0000   1.0000   1.0000   1.0000   1.0000   1.0000
     1.0000   1.0000   1.0000   1.0000   1.0000   1.0000   1.0000   1.0000
     1.0000   1.0000   1.0000   1.0000   1.0000   1.0000   1.0000   1.0000
     1.0000   1.0000   1.0000   1.0000   1.0000   1.0000   1.0000   1.0000
     1.0000   1.0000   1.0000   1.0000   1.0000   1.0000   1.0000   1.0000
     1.0000   1.0000   1.0000   1.0000   1.0000   1.0000   1.0000   1.0000
     1.0000   1.0000   1.0000   1.0000   1.0000   1.0000   1.0000   1.0000
     1.0000   1.0000   1.0000   1.0000   1.0000   1.0000   1.0000   1.0000
     1.0000   1.0000   1.0000   1.0000   1.0000   1.0000   1.0000   1.0000
     1.0000   1.0000   1.0000   1.0000   1.0000   1.0000   1.0000   1.0000
     1.0000   1.0000   1.0000   1.0000   1.0000   1.0000   1.0000   1.0000
     1.0000   1.0000   1.0000   1.0000   1.0000   1.0000   1.0000   1.0000
     1.0000   1.0000   1.0000   1.0000   1.0000   1.0000   1.0000   1.0000
     1.0000   1.0000   1.0000   1.0000   1.0000   1.0000   1.0000   1.0000
     1.0000   1.0000   1.0000   1.0000   1.0000   1.0000   1.0000   1.0000
     1.0000   1.0000   1.0000   1.0000   1.0000   1.0000   1.0000   1.0000
     1.0000   1.0000   1.0000   1.0000   1.0000   1.0000   1.0000   1.0000
     1.0000   1.0000   1.0000   1.0000   1.0000   1.0000   1.0000   1.0000
     1.0000   1.0000   1.0000   1.0000   1.0000   1.0000   1.0000   1.0000
     1.0000   1.0000   1.0000   1.0000   1.0000   1.0000   1.0000   1.0000
     1.0000   1.0000   1.0000   1.0000   1.0000   1.0000   1.0000   1.0000
     1.0000   1.0000   1.0000   1.0000   1.0000   1.0000   1.0000   1.0000
     1.0000   1.0000   1.0000   1.0000   1.0000   1.0000   1.0000   1.0000
     1.0000   1.0000   1.0000   1.0000   1.0000   1.0000   1.0000   1.0000
     1.0000   1.0000   1.0000   1.0000

          k = 0.0000 0.0000-0.6023 ( 95164 PWs)   bands (ev):

   -59.5631 -59.5134 -59.4806 -59.4294 -59.4151 -59.3651 -59.3647 -59.3137
   -36.0753 -35.9957 -35.9321 -35.8800 -35.8482 -35.8261 -35.8097 -35.7632
   -35.7439 -35.7201 -35.7135 -35.6935 -35.6794 -35.6527 -35.6414 -35.6307
   -35.6254 -35.6229 -35.6007 -35.5666 -35.5438 -35.5125 -35.4806 -35.4293
   -24.3743 -24.2527 -24.0916 -23.9133 -23.8066 -23.7608 -23.7357 -23.7061
   -23.6503 -23.6450 -23.6223 -23.5802 -22.9230 -22.8294 -22.7730 -22.7058
   -22.4747 -22.2416 -22.0626 -21.8701 -21.7162 -21.6166 -21.4602 -21.4497
   -21.4195 -21.4099 -21.4021 -21.3860 -21.3759 -21.3665 -21.3509 -21.3467
   -21.3003 -21.2955 -19.2980 -19.1992 -19.1392 -19.0718 -19.0702 -18.9676
   -18.9080 -18.8418 -18.4007 -18.1074 -17.9167 -17.8772 -17.8634 -17.8467
   -16.7519 -16.5521 -16.4125 -16.4093 -16.2531 -16.1786 -16.1277 -15.8797
   -15.6449 -15.6361 -15.6231 -15.5789 -14.2044 -13.9118 -13.7201 -13.7113
   -13.6765 -13.6629 -13.6576 -13.4052 -13.1940 -13.1463 -13.1319 -13.0733
   -11.8109 -11.5341 -11.4989 -11.3665 -11.3231 -11.2932 -11.2645 -11.2301
   -11.0616 -10.9987 -10.9479 -10.9279 -10.3320 -10.0826  -9.9961  -9.8953
    -9.8510  -9.7870  -9.7530  -9.5818  -9.4427  -9.3925  -9.3664  -9.3312
    -9.3055  -9.2520  -9.2338  -9.2145  -9.1743  -9.1438  -9.1066  -9.0499
    -9.0435  -9.0161  -8.9603  -8.9164  -8.8826  -8.8512  -8.8258  -8.8021
    -8.7744  -8.7655  -8.6680  -8.6561  -8.6422  -8.6078  -8.5586  -8.5129
    -8.4193  -8.3909  -8.3483  -8.3206  -8.2518  -8.2354  -8.2168  -8.1863
    -8.1353  -8.1118  -8.0936  -7.9166  -7.7839  -7.7299  -7.6741  -7.6636
    -7.6027  -7.5912  -7.5802  -7.4952  -7.4386  -7.4107  -7.2871  -7.2489
    -7.0972  -7.0862  -7.0828  -7.0223  -6.9658  -6.6624  -6.5476  -6.4016
    -6.3771  -6.3607  -6.3302  -6.3156  -6.2584  -6.2178  -6.1238  -6.0182
    -5.9603  -5.9400  -5.9206  -5.8790  -5.8185  -5.7747  -5.7406  -5.7180
    -5.6792  -5.6541  -5.6208  -5.5730  -5.5650  -5.4784  -5.4575  -5.4357
    -5.4139  -5.3779  -5.3568  -5.3465  -5.3110  -5.2848  -5.2587  -5.2287
    -5.1881  -5.1324  -5.1120  -5.0428  -5.0148  -4.9301  -4.8871  -4.8243
    -4.7863  -4.7783  -4.7584  -4.7459  -4.6779  -4.5680  -4.5552  -4.5222
    -4.5068  -4.4483  -4.3962  -4.3568  -4.3298  -4.3059  -4.2842  -4.2615
    -4.1745  -4.1679  -4.1611  -4.1210  -4.0830  -4.0451  -4.0293  -4.0179
    -4.0164  -3.9684  -3.9530  -3.9398  -3.9017  -3.8815  -3.8439  -3.8263
    -3.7292  -3.6247  -3.5942  -3.5818  -3.5510  -3.5286  -3.4567  -3.3878
    -3.3305  -3.3131  -3.2629  -3.2487  -3.2349  -3.2208  -3.1728  -3.1592
    -3.0915  -3.0733  -3.0007  -2.9747  -2.7933  -2.4049  -2.2244  -1.9073
    -1.7230  -1.6818  -1.6716  -1.5258

     occupation numbers 
     1.0000   1.0000   1.0000   1.0000   1.0000   1.0000   1.0000   1.0000
     1.0000   1.0000   1.0000   1.0000   1.0000   1.0000   1.0000   1.0000
     1.0000   1.0000   1.0000   1.0000   1.0000   1.0000   1.0000   1.0000
     1.0000   1.0000   1.0000   1.0000   1.0000   1.0000   1.0000   1.0000
     1.0000   1.0000   1.0000   1.0000   1.0000   1.0000   1.0000   1.0000
     1.0000   1.0000   1.0000   1.0000   1.0000   1.0000   1.0000   1.0000
     1.0000   1.0000   1.0000   1.0000   1.0000   1.0000   1.0000   1.0000
     1.0000   1.0000   1.0000   1.0000   1.0000   1.0000   1.0000   1.0000
     1.0000   1.0000   1.0000   1.0000   1.0000   1.0000   1.0000   1.0000
     1.0000   1.0000   1.0000   1.0000   1.0000   1.0000   1.0000   1.0000
     1.0000   1.0000   1.0000   1.0000   1.0000   1.0000   1.0000   1.0000
     1.0000   1.0000   1.0000   1.0000   1.0000   1.0000   1.0000   1.0000
     1.0000   1.0000   1.0000   1.0000   1.0000   1.0000   1.0000   1.0000
     1.0000   1.0000   1.0000   1.0000   1.0000   1.0000   1.0000   1.0000
     1.0000   1.0000   1.0000   1.0000   1.0000   1.0000   1.0000   1.0000
     1.0000   1.0000   1.0000   1.0000   1.0000   1.0000   1.0000   1.0000
     1.0000   1.0000   1.0000   1.0000   1.0000   1.0000   1.0000   1.0000
     1.0000   1.0000   1.0000   1.0000   1.0000   1.0000   1.0000   1.0000
     1.0000   1.0000   1.0000   1.0000   1.0000   1.0000   1.0000   1.0000
     1.0000   1.0000   1.0000   1.0000   1.0000   1.0000   1.0000   1.0000
     1.0000   1.0000   1.0000   1.0000   1.0000   1.0000   1.0000   1.0000
     1.0000   1.0000   1.0000   1.0000   1.0000   1.0000   1.0000   1.0000
     1.0000   1.0000   1.0000   1.0000   1.0000   1.0000   1.0000   1.0000
     1.0000   1.0000   1.0000   1.0000   1.0000   1.0000   1.0000   1.0000
     1.0000   1.0000   1.0000   1.0000   1.0000   1.0000   1.0000   1.0000
     1.0000   1.0000   1.0000   1.0000   1.0000   1.0000   1.0000   1.0000
     1.0000   1.0000   1.0000   1.0000   1.0000   1.0000   1.0000   1.0000
     1.0000   1.0000   1.0000   1.0000   1.0000   1.0000   1.0000   1.0000
     1.0000   1.0000   1.0000   1.0000   1.0000   1.0000   1.0000   1.0000
     1.0000   1.0000   1.0000   1.0000   1.0000   1.0000   1.0000   1.0000
     1.0000   1.0000   1.0000   1.0000   1.0000   1.0000   1.0000   1.0000
     1.0000   1.0000   1.0000   1.0000   1.0000   1.0000   1.0000   1.0000
     1.0000   1.0000   1.0000   1.0000   1.0000   1.0000   1.0000   1.0000
     1.0000   1.0000   1.0000   1.0000   1.0000   1.0000   1.0000   1.0000
     1.0000   1.0000   1.0000   1.0000   1.0000   1.0000   1.0000   1.0000
     1.0000   1.0000   1.0000   1.0000

          k = 0.0000-0.5401-0.3012 ( 95122 PWs)   bands (ev):

   -59.5631 -59.5134 -59.4806 -59.4294 -59.4151 -59.3651 -59.3647 -59.3137
   -36.0753 -35.9957 -35.9321 -35.8800 -35.8482 -35.8261 -35.8097 -35.7632
   -35.7439 -35.7201 -35.7135 -35.6935 -35.6794 -35.6527 -35.6414 -35.6307
   -35.6254 -35.6229 -35.6007 -35.5666 -35.5438 -35.5125 -35.4806 -35.4293
   -24.3743 -24.2527 -24.0916 -23.9133 -23.8066 -23.7607 -23.7357 -23.7062
   -23.6503 -23.6446 -23.6226 -23.5802 -22.9229 -22.8294 -22.7729 -22.7058
   -22.4747 -22.2416 -22.0626 -21.8701 -21.7162 -21.6166 -21.4601 -21.4497
   -21.4196 -21.4098 -21.4020 -21.3861 -21.3759 -21.3665 -21.3510 -21.3465
   -21.3003 -21.2955 -19.2980 -19.1992 -19.1392 -19.0718 -19.0702 -18.9676
   -18.9080 -18.8418 -18.4007 -18.1074 -17.9167 -17.8772 -17.8633 -17.8468
   -16.7519 -16.5521 -16.4124 -16.4095 -16.2531 -16.1785 -16.1278 -15.8796
   -15.6442 -15.6318 -15.6274 -15.5797 -14.2044 -13.9118 -13.7201 -13.7112
   -13.6766 -13.6631 -13.6573 -13.4048 -13.1732 -13.1665 -13.1231 -13.0838
   -11.8118 -11.5361 -11.4914 -11.3602 -11.3374 -11.2942 -11.2591 -11.2285
   -11.0375 -10.9894 -10.9695 -10.9443 -10.3422 -10.0586  -9.9862  -9.9021
    -9.8385  -9.8095  -9.7631  -9.5410  -9.4580  -9.4114  -9.4032  -9.3184
    -9.2939  -9.2783  -9.2335  -9.1709  -9.1601  -9.1378  -9.1074  -9.0773
    -9.0390  -9.0086  -8.9604  -8.9418  -8.8799  -8.8443  -8.8316  -8.8037
    -8.7551  -8.7417  -8.7310  -8.6589  -8.6309  -8.5886  -8.5554  -8.4950
    -8.4083  -8.3790  -8.3784  -8.3107  -8.2709  -8.2493  -8.2087  -8.1865
    -8.1431  -8.1122  -8.0806  -7.9152  -7.7865  -7.7273  -7.6519  -7.6377
    -7.6210  -7.6093  -7.5940  -7.4874  -7.4427  -7.4060  -7.2865  -7.2525
    -7.0960  -7.0879  -7.0831  -7.0218  -6.9665  -6.6775  -6.5197  -6.4004
    -6.3881  -6.3582  -6.3428  -6.3057  -6.2641  -6.2205  -6.1222  -6.0228
    -5.9606  -5.9343  -5.9252  -5.8780  -5.8153  -5.7706  -5.7261  -5.7086
    -5.6800  -5.6577  -5.6481  -5.5659  -5.5440  -5.4908  -5.4374  -5.4311
    -5.4162  -5.4002  -5.3456  -5.3354  -5.3022  -5.2916  -5.2737  -5.2388
    -5.2053  -5.1608  -5.1070  -5.0488  -4.9890  -4.9417  -4.9079  -4.7999
    -4.7967  -4.7627  -4.7290  -4.7217  -4.6767  -4.5867  -4.5625  -4.5235
    -4.5070  -4.4416  -4.3852  -4.3638  -4.3397  -4.3004  -4.2655  -4.2638
    -4.2177  -4.1864  -4.1655  -4.1042  -4.0976  -4.0473  -4.0372  -4.0311
    -4.0036  -3.9635  -3.9431  -3.9248  -3.9061  -3.8632  -3.8396  -3.8274
    -3.7202  -3.6284  -3.6034  -3.5667  -3.5494  -3.5322  -3.4671  -3.4175
    -3.3154  -3.3074  -3.2673  -3.2501  -3.2389  -3.2217  -3.1441  -3.1210
    -3.1015  -3.0835  -3.0130  -2.9941  -2.7917  -2.4053  -2.2245  -1.9076
    -1.7224  -1.6820  -1.6727  -1.5260

     occupation numbers 
     1.0000   1.0000   1.0000   1.0000   1.0000   1.0000   1.0000   1.0000
     1.0000   1.0000   1.0000   1.0000   1.0000   1.0000   1.0000   1.0000
     1.0000   1.0000   1.0000   1.0000   1.0000   1.0000   1.0000   1.0000
     1.0000   1.0000   1.0000   1.0000   1.0000   1.0000   1.0000   1.0000
     1.0000   1.0000   1.0000   1.0000   1.0000   1.0000   1.0000   1.0000
     1.0000   1.0000   1.0000   1.0000   1.0000   1.0000   1.0000   1.0000
     1.0000   1.0000   1.0000   1.0000   1.0000   1.0000   1.0000   1.0000
     1.0000   1.0000   1.0000   1.0000   1.0000   1.0000   1.0000   1.0000
     1.0000   1.0000   1.0000   1.0000   1.0000   1.0000   1.0000   1.0000
     1.0000   1.0000   1.0000   1.0000   1.0000   1.0000   1.0000   1.0000
     1.0000   1.0000   1.0000   1.0000   1.0000   1.0000   1.0000   1.0000
     1.0000   1.0000   1.0000   1.0000   1.0000   1.0000   1.0000   1.0000
     1.0000   1.0000   1.0000   1.0000   1.0000   1.0000   1.0000   1.0000
     1.0000   1.0000   1.0000   1.0000   1.0000   1.0000   1.0000   1.0000
     1.0000   1.0000   1.0000   1.0000   1.0000   1.0000   1.0000   1.0000
     1.0000   1.0000   1.0000   1.0000   1.0000   1.0000   1.0000   1.0000
     1.0000   1.0000   1.0000   1.0000   1.0000   1.0000   1.0000   1.0000
     1.0000   1.0000   1.0000   1.0000   1.0000   1.0000   1.0000   1.0000
     1.0000   1.0000   1.0000   1.0000   1.0000   1.0000   1.0000   1.0000
     1.0000   1.0000   1.0000   1.0000   1.0000   1.0000   1.0000   1.0000
     1.0000   1.0000   1.0000   1.0000   1.0000   1.0000   1.0000   1.0000
     1.0000   1.0000   1.0000   1.0000   1.0000   1.0000   1.0000   1.0000
     1.0000   1.0000   1.0000   1.0000   1.0000   1.0000   1.0000   1.0000
     1.0000   1.0000   1.0000   1.0000   1.0000   1.0000   1.0000   1.0000
     1.0000   1.0000   1.0000   1.0000   1.0000   1.0000   1.0000   1.0000
     1.0000   1.0000   1.0000   1.0000   1.0000   1.0000   1.0000   1.0000
     1.0000   1.0000   1.0000   1.0000   1.0000   1.0000   1.0000   1.0000
     1.0000   1.0000   1.0000   1.0000   1.0000   1.0000   1.0000   1.0000
     1.0000   1.0000   1.0000   1.0000   1.0000   1.0000   1.0000   1.0000
     1.0000   1.0000   1.0000   1.0000   1.0000   1.0000   1.0000   1.0000
     1.0000   1.0000   1.0000   1.0000   1.0000   1.0000   1.0000   1.0000
     1.0000   1.0000   1.0000   1.0000   1.0000   1.0000   1.0000   1.0000
     1.0000   1.0000   1.0000   1.0000   1.0000   1.0000   1.0000   1.0000
     1.0000   1.0000   1.0000   1.0000   1.0000   1.0000   1.0000   1.0000
     1.0000   1.0000   1.0000   1.0000   1.0000   1.0000   1.0000   1.0000
     1.0000   1.0000   1.0000   1.0000

          k = 0.0000-0.5401-0.9035 ( 95122 PWs)   bands (ev):

   -59.5631 -59.5134 -59.4806 -59.4294 -59.4151 -59.3651 -59.3647 -59.3137
   -36.0753 -35.9957 -35.9321 -35.8800 -35.8482 -35.8261 -35.8097 -35.7632
   -35.7439 -35.7201 -35.7135 -35.6935 -35.6794 -35.6527 -35.6414 -35.6307
   -35.6254 -35.6229 -35.6007 -35.5666 -35.5438 -35.5125 -35.4806 -35.4293
   -24.3743 -24.2527 -24.0916 -23.9133 -23.8066 -23.7607 -23.7357 -23.7062
   -23.6503 -23.6446 -23.6226 -23.5802 -22.9229 -22.8294 -22.7730 -22.7058
   -22.4747 -22.2416 -22.0626 -21.8701 -21.7162 -21.6166 -21.4601 -21.4496
   -21.4197 -21.4098 -21.4019 -21.3859 -21.3759 -21.3666 -21.3510 -21.3465
   -21.3003 -21.2955 -19.2980 -19.1992 -19.1392 -19.0718 -19.0702 -18.9676
   -18.9080 -18.8418 -18.4007 -18.1074 -17.9167 -17.8772 -17.8633 -17.8468
   -16.7520 -16.5521 -16.4124 -16.4093 -16.2531 -16.1785 -16.1278 -15.8796
   -15.6442 -15.6318 -15.6274 -15.5797 -14.2044 -13.9118 -13.7180 -13.7136
   -13.6766 -13.6629 -13.6572 -13.4048 -13.1728 -13.1668 -13.1233 -13.0838
   -11.8120 -11.5359 -11.4944 -11.3563 -11.3355 -11.2951 -11.2594 -11.2292
   -11.0253 -10.9996 -10.9723 -10.9460 -10.3414 -10.0587  -9.9876  -9.8980
    -9.8582  -9.7824  -9.7501  -9.5755  -9.4729  -9.4255  -9.3633  -9.3170
    -9.2898  -9.2694  -9.2335  -9.1853  -9.1662  -9.1418  -9.1093  -9.0574
    -9.0434  -9.0166  -8.9696  -8.9227  -8.8825  -8.8448  -8.8233  -8.8036
    -8.7715  -8.7504  -8.7235  -8.6561  -8.6237  -8.5998  -8.5346  -8.4959
    -8.4421  -8.3814  -8.3410  -8.3122  -8.2686  -8.2553  -8.2013  -8.1729
    -8.1559  -8.1212  -8.0927  -7.9136  -7.7818  -7.7269  -7.6531  -7.6356
    -7.6251  -7.6079  -7.5920  -7.4880  -7.4425  -7.4057  -7.2874  -7.2519
    -7.0960  -7.0871  -7.0839  -7.0224  -6.9681  -6.6622  -6.5411  -6.4042
    -6.3720  -6.3630  -6.3392  -6.3052  -6.2682  -6.2215  -6.1225  -6.0239
    -5.9583  -5.9452  -5.9219  -5.8696  -5.8190  -5.7673  -5.7255  -5.7052
    -5.6876  -5.6624  -5.6308  -5.5687  -5.5424  -5.4686  -5.4550  -5.4341
    -5.3982  -5.3923  -5.3656  -5.3483  -5.3412  -5.2911  -5.2532  -5.2422
    -5.2200  -5.1255  -5.0809  -5.0626  -5.0027  -4.9441  -4.8969  -4.8064
    -4.7943  -4.7641  -4.7502  -4.7100  -4.6799  -4.5901  -4.5583  -4.5254
    -4.4887  -4.4208  -4.3979  -4.3849  -4.3244  -4.3038  -4.2775  -4.2578
    -4.2158  -4.1830  -4.1578  -4.1172  -4.0983  -4.0540  -4.0357  -4.0315
    -4.0198  -3.9508  -3.9385  -3.9331  -3.8976  -3.8658  -3.8381  -3.8169
    -3.7165  -3.6375  -3.6138  -3.5688  -3.5425  -3.5286  -3.4666  -3.4039
    -3.3340  -3.3040  -3.2615  -3.2526  -3.2382  -3.2224  -3.1386  -3.1308
    -3.0942  -3.0869  -3.0129  -2.9928  -2.7929  -2.4053  -2.2240  -1.9077
    -1.7224  -1.6814  -1.6729  -1.5264

     occupation numbers 
     1.0000   1.0000   1.0000   1.0000   1.0000   1.0000   1.0000   1.0000
     1.0000   1.0000   1.0000   1.0000   1.0000   1.0000   1.0000   1.0000
     1.0000   1.0000   1.0000   1.0000   1.0000   1.0000   1.0000   1.0000
     1.0000   1.0000   1.0000   1.0000   1.0000   1.0000   1.0000   1.0000
     1.0000   1.0000   1.0000   1.0000   1.0000   1.0000   1.0000   1.0000
     1.0000   1.0000   1.0000   1.0000   1.0000   1.0000   1.0000   1.0000
     1.0000   1.0000   1.0000   1.0000   1.0000   1.0000   1.0000   1.0000
     1.0000   1.0000   1.0000   1.0000   1.0000   1.0000   1.0000   1.0000
     1.0000   1.0000   1.0000   1.0000   1.0000   1.0000   1.0000   1.0000
     1.0000   1.0000   1.0000   1.0000   1.0000   1.0000   1.0000   1.0000
     1.0000   1.0000   1.0000   1.0000   1.0000   1.0000   1.0000   1.0000
     1.0000   1.0000   1.0000   1.0000   1.0000   1.0000   1.0000   1.0000
     1.0000   1.0000   1.0000   1.0000   1.0000   1.0000   1.0000   1.0000
     1.0000   1.0000   1.0000   1.0000   1.0000   1.0000   1.0000   1.0000
     1.0000   1.0000   1.0000   1.0000   1.0000   1.0000   1.0000   1.0000
     1.0000   1.0000   1.0000   1.0000   1.0000   1.0000   1.0000   1.0000
     1.0000   1.0000   1.0000   1.0000   1.0000   1.0000   1.0000   1.0000
     1.0000   1.0000   1.0000   1.0000   1.0000   1.0000   1.0000   1.0000
     1.0000   1.0000   1.0000   1.0000   1.0000   1.0000   1.0000   1.0000
     1.0000   1.0000   1.0000   1.0000   1.0000   1.0000   1.0000   1.0000
     1.0000   1.0000   1.0000   1.0000   1.0000   1.0000   1.0000   1.0000
     1.0000   1.0000   1.0000   1.0000   1.0000   1.0000   1.0000   1.0000
     1.0000   1.0000   1.0000   1.0000   1.0000   1.0000   1.0000   1.0000
     1.0000   1.0000   1.0000   1.0000   1.0000   1.0000   1.0000   1.0000
     1.0000   1.0000   1.0000   1.0000   1.0000   1.0000   1.0000   1.0000
     1.0000   1.0000   1.0000   1.0000   1.0000   1.0000   1.0000   1.0000
     1.0000   1.0000   1.0000   1.0000   1.0000   1.0000   1.0000   1.0000
     1.0000   1.0000   1.0000   1.0000   1.0000   1.0000   1.0000   1.0000
     1.0000   1.0000   1.0000   1.0000   1.0000   1.0000   1.0000   1.0000
     1.0000   1.0000   1.0000   1.0000   1.0000   1.0000   1.0000   1.0000
     1.0000   1.0000   1.0000   1.0000   1.0000   1.0000   1.0000   1.0000
     1.0000   1.0000   1.0000   1.0000   1.0000   1.0000   1.0000   1.0000
     1.0000   1.0000   1.0000   1.0000   1.0000   1.0000   1.0000   1.0000
     1.0000   1.0000   1.0000   1.0000   1.0000   1.0000   1.0000   1.0000
     1.0000   1.0000   1.0000   1.0000   1.0000   1.0000   1.0000   1.0000
     1.0000   1.0000   1.0000   1.0000

          k =-0.5000-0.2042-0.3012 ( 95122 PWs)   bands (ev):

   -59.5631 -59.5134 -59.4806 -59.4294 -59.4151 -59.3651 -59.3647 -59.3137
   -36.0753 -35.9957 -35.9321 -35.8800 -35.8482 -35.8261 -35.8097 -35.7632
   -35.7439 -35.7201 -35.7135 -35.6935 -35.6794 -35.6527 -35.6414 -35.6307
   -35.6254 -35.6229 -35.6007 -35.5666 -35.5438 -35.5125 -35.4806 -35.4293
   -24.3743 -24.2527 -24.0916 -23.9133 -23.8066 -23.7607 -23.7357 -23.7063
   -23.6503 -23.6446 -23.6226 -23.5802 -22.9229 -22.8293 -22.7730 -22.7058
   -22.4747 -22.2416 -22.0626 -21.8701 -21.7162 -21.6166 -21.4602 -21.4496
   -21.4194 -21.4101 -21.4019 -21.3861 -21.3759 -21.3666 -21.3507 -21.3467
   -21.3003 -21.2955 -19.2980 -19.1992 -19.1392 -19.0718 -19.0702 -18.9676
   -18.9080 -18.8418 -18.4007 -18.1074 -17.9167 -17.8772 -17.8633 -17.8468
   -16.7519 -16.5521 -16.4124 -16.4094 -16.2531 -16.1785 -16.1277 -15.8797
   -15.6442 -15.6318 -15.6274 -15.5797 -14.2044 -13.9118 -13.7199 -13.7111
   -13.6767 -13.6631 -13.6575 -13.4051 -13.1730 -13.1667 -13.1233 -13.0832
   -11.8115 -11.5350 -11.4947 -11.3605 -11.3350 -11.3138 -11.2475 -11.2185
   -11.0321 -10.9917 -10.9655 -10.9528 -10.3431 -10.0702  -9.9757  -9.9233
    -9.8348  -9.8044  -9.7138  -9.6085  -9.4528  -9.3876  -9.3533  -9.3371
    -9.3142  -9.2824  -9.2163  -9.2014  -9.1882  -9.1081  -9.0959  -9.0646
    -9.0498  -9.0056  -8.9502  -8.9360  -8.9055  -8.8490  -8.8203  -8.8107
    -8.7763  -8.7469  -8.7111  -8.6624  -8.6308  -8.5927  -8.5529  -8.4854
    -8.4103  -8.3833  -8.3644  -8.3117  -8.2641  -8.2526  -8.2091  -8.1878
    -8.1449  -8.1011  -8.0948  -7.9188  -7.7837  -7.7292  -7.6548  -7.6355
    -7.6173  -7.6132  -7.5916  -7.4867  -7.4425  -7.4056  -7.2875  -7.2525
    -7.0958  -7.0868  -7.0842  -7.0221  -6.9686  -6.6618  -6.5411  -6.4044
    -6.3740  -6.3604  -6.3394  -6.3157  -6.2550  -6.2213  -6.1203  -6.0231
    -5.9545  -5.9382  -5.9208  -5.8867  -5.8227  -5.7692  -5.7371  -5.7187
    -5.6753  -5.6486  -5.6192  -5.5788  -5.5574  -5.4788  -5.4745  -5.4265
    -5.4116  -5.3818  -5.3563  -5.3473  -5.3166  -5.2767  -5.2680  -5.2087
    -5.1748  -5.1623  -5.1055  -5.0627  -5.0002  -4.9370  -4.8940  -4.8071
    -4.7744  -4.7586  -4.7504  -4.7187  -4.6948  -4.6759  -4.5323  -4.5077
    -4.4680  -4.4497  -4.4030  -4.3813  -4.3362  -4.2972  -4.2794  -4.2442
    -4.2189  -4.1662  -4.1526  -4.1204  -4.0808  -4.0438  -4.0362  -4.0288
    -4.0101  -3.9507  -3.9495  -3.9354  -3.8853  -3.8687  -3.8478  -3.8254
    -3.7200  -3.6416  -3.6104  -3.5695  -3.5634  -3.5150  -3.4613  -3.4241
    -3.3283  -3.3041  -3.2654  -3.2435  -3.2359  -3.2183  -3.1376  -3.1253
    -3.0989  -3.0861  -3.0161  -2.9939  -2.7916  -2.4054  -2.2243  -1.9070
    -1.7226  -1.6821  -1.6729  -1.5259

     occupation numbers 
     1.0000   1.0000   1.0000   1.0000   1.0000   1.0000   1.0000   1.0000
     1.0000   1.0000   1.0000   1.0000   1.0000   1.0000   1.0000   1.0000
     1.0000   1.0000   1.0000   1.0000   1.0000   1.0000   1.0000   1.0000
     1.0000   1.0000   1.0000   1.0000   1.0000   1.0000   1.0000   1.0000
     1.0000   1.0000   1.0000   1.0000   1.0000   1.0000   1.0000   1.0000
     1.0000   1.0000   1.0000   1.0000   1.0000   1.0000   1.0000   1.0000
     1.0000   1.0000   1.0000   1.0000   1.0000   1.0000   1.0000   1.0000
     1.0000   1.0000   1.0000   1.0000   1.0000   1.0000   1.0000   1.0000
     1.0000   1.0000   1.0000   1.0000   1.0000   1.0000   1.0000   1.0000
     1.0000   1.0000   1.0000   1.0000   1.0000   1.0000   1.0000   1.0000
     1.0000   1.0000   1.0000   1.0000   1.0000   1.0000   1.0000   1.0000
     1.0000   1.0000   1.0000   1.0000   1.0000   1.0000   1.0000   1.0000
     1.0000   1.0000   1.0000   1.0000   1.0000   1.0000   1.0000   1.0000
     1.0000   1.0000   1.0000   1.0000   1.0000   1.0000   1.0000   1.0000
     1.0000   1.0000   1.0000   1.0000   1.0000   1.0000   1.0000   1.0000
[...]
   -11.8117 -11.5370 -11.4937 -11.3582 -11.3394 -11.3107 -11.2473 -11.2168
   -11.0353 -10.9886 -10.9665 -10.9529 -10.3449 -10.0700  -9.9816  -9.9005
    -9.8567  -9.7912  -9.7372  -9.5709  -9.4625  -9.4041  -9.3607  -9.3468
    -9.3007  -9.2679  -9.2469  -9.1912  -9.1601  -9.1226  -9.1059  -9.0574
    -9.0432  -8.9957  -8.9499  -8.9344  -8.9126  -8.8643  -8.8227  -8.8093
    -8.7699  -8.7626  -8.7082  -8.6619  -8.6134  -8.5937  -8.5350  -8.4990
    -8.4345  -8.3886  -8.3526  -8.2945  -8.2617  -8.2401  -8.2014  -8.1867
    -8.1522  -8.1265  -8.0958  -7.9168  -7.7842  -7.7271  -7.6492  -7.6402
    -7.6197  -7.6089  -7.5936  -7.4874  -7.4423  -7.4052  -7.2866  -7.2521
    -7.0962  -7.0876  -7.0830  -7.0229  -6.9656  -6.6780  -6.5198  -6.3995
    -6.3850  -6.3640  -6.3371  -6.3152  -6.2584  -6.2202  -6.1202  -6.0244
    -5.9523  -5.9452  -5.9187  -5.8762  -5.8203  -5.7728  -5.7445  -5.7192
    -5.6746  -5.6451  -5.6128  -5.5792  -5.5619  -5.5257  -5.4346  -5.4184
    -5.3962  -5.3717  -5.3570  -5.3436  -5.3069  -5.2869  -5.2750  -5.2228
    -5.2035  -5.1604  -5.0932  -5.0461  -5.0340  -4.9326  -4.8855  -4.8020
    -4.7826  -4.7737  -4.7635  -4.7230  -4.6697  -4.6160  -4.5710  -4.5141
    -4.5100  -4.4311  -4.3896  -4.3513  -4.3232  -4.3025  -4.2673  -4.2392
    -4.2040  -4.1822  -4.1665  -4.1308  -4.0855  -4.0638  -4.0283  -4.0216
    -4.0096  -3.9609  -3.9470  -3.9441  -3.8964  -3.8684  -3.8362  -3.8267
    -3.7285  -3.6490  -3.6052  -3.5842  -3.5187  -3.5055  -3.4757  -3.4230
    -3.3155  -3.3064  -3.2726  -3.2480  -3.2354  -3.2226  -3.1379  -3.1219
    -3.0981  -3.0884  -3.0163  -2.9940  -2.7926  -2.4053  -2.2243  -1.9070
    -1.7224  -1.6814  -1.6732  -1.5263

     occupation numbers 
     1.0000   1.0000   1.0000   1.0000   1.0000   1.0000   1.0000   1.0000
     1.0000   1.0000   1.0000   1.0000   1.0000   1.0000   1.0000   1.0000
     1.0000   1.0000   1.0000   1.0000   1.0000   1.0000   1.0000   1.0000
     1.0000   1.0000   1.0000   1.0000   1.0000   1.0000   1.0000   1.0000
     1.0000   1.0000   1.0000   1.0000   1.0000   1.0000   1.0000   1.0000
     1.0000   1.0000   1.0000   1.0000   1.0000   1.0000   1.0000   1.0000
     1.0000   1.0000   1.0000   1.0000   1.0000   1.0000   1.0000   1.0000
     1.0000   1.0000   1.0000   1.0000   1.0000   1.0000   1.0000   1.0000
     1.0000   1.0000   1.0000   1.0000   1.0000   1.0000   1.0000   1.0000
     1.0000   1.0000   1.0000   1.0000   1.0000   1.0000   1.0000   1.0000
     1.0000   1.0000   1.0000   1.0000   1.0000   1.0000   1.0000   1.0000
     1.0000   1.0000   1.0000   1.0000   1.0000   1.0000   1.0000   1.0000
     1.0000   1.0000   1.0000   1.0000   1.0000   1.0000   1.0000   1.0000
     1.0000   1.0000   1.0000   1.0000   1.0000   1.0000   1.0000   1.0000
     1.0000   1.0000   1.0000   1.0000   1.0000   1.0000   1.0000   1.0000
     1.0000   1.0000   1.0000   1.0000   1.0000   1.0000   1.0000   1.0000
     1.0000   1.0000   1.0000   1.0000   1.0000   1.0000   1.0000   1.0000
     1.0000   1.0000   1.0000   1.0000   1.0000   1.0000   1.0000   1.0000
     1.0000   1.0000   1.0000   1.0000   1.0000   1.0000   1.0000   1.0000
     1.0000   1.0000   1.0000   1.0000   1.0000   1.0000   1.0000   1.0000
     1.0000   1.0000   1.0000   1.0000   1.0000   1.0000   1.0000   1.0000
     1.0000   1.0000   1.0000   1.0000   1.0000   1.0000   1.0000   1.0000
     1.0000   1.0000   1.0000   1.0000   1.0000   1.0000   1.0000   1.0000
     1.0000   1.0000   1.0000   1.0000   1.0000   1.0000   1.0000   1.0000
     1.0000   1.0000   1.0000   1.0000   1.0000   1.0000   1.0000   1.0000
     1.0000   1.0000   1.0000   1.0000   1.0000   1.0000   1.0000   1.0000
     1.0000   1.0000   1.0000   1.0000   1.0000   1.0000   1.0000   1.0000
     1.0000   1.0000   1.0000   1.0000   1.0000   1.0000   1.0000   1.0000
     1.0000   1.0000   1.0000   1.0000   1.0000   1.0000   1.0000   1.0000
     1.0000   1.0000   1.0000   1.0000   1.0000   1.0000   1.0000   1.0000
     1.0000   1.0000   1.0000   1.0000   1.0000   1.0000   1.0000   1.0000
     1.0000   1.0000   1.0000   1.0000   1.0000   1.0000   1.0000   1.0000
     1.0000   1.0000   1.0000   1.0000   1.0000   1.0000   1.0000   1.0000
     1.0000   1.0000   1.0000   1.0000   1.0000   1.0000   1.0000   1.0000
     1.0000   1.0000   1.0000   1.0000   1.0000   1.0000   1.0000   1.0000
     1.0000   1.0000   1.0000   1.0000

          k =-0.5000-0.7444-0.6023 ( 95164 PWs)   bands (ev):

   -59.5631 -59.5134 -59.4806 -59.4294 -59.4151 -59.3651 -59.3647 -59.3137
   -36.0753 -35.9957 -35.9321 -35.8800 -35.8482 -35.8261 -35.8097 -35.7632
   -35.7439 -35.7201 -35.7135 -35.6935 -35.6794 -35.6527 -35.6414 -35.6307
   -35.6254 -35.6229 -35.6007 -35.5666 -35.5438 -35.5125 -35.4806 -35.4293
   -24.3743 -24.2527 -24.0916 -23.9133 -23.8066 -23.7608 -23.7357 -23.7060
   -23.6503 -23.6450 -23.6223 -23.5802 -22.9229 -22.8294 -22.7730 -22.7058
   -22.4747 -22.2416 -22.0626 -21.8701 -21.7162 -21.6166 -21.4602 -21.4496
   -21.4196 -21.4101 -21.4018 -21.3860 -21.3757 -21.3667 -21.3508 -21.3468
   -21.3003 -21.2955 -19.2980 -19.1992 -19.1392 -19.0718 -19.0702 -18.9676
   -18.9080 -18.8418 -18.4007 -18.1074 -17.9167 -17.8772 -17.8634 -17.8467
   -16.7520 -16.5521 -16.4125 -16.4092 -16.2531 -16.1785 -16.1278 -15.8796
   -15.6449 -15.6361 -15.6230 -15.5789 -14.2044 -13.9119 -13.7177 -13.7134
   -13.6763 -13.6631 -13.6580 -13.4048 -13.1918 -13.1465 -13.1337 -13.0736
   -11.8128 -11.5360 -11.4941 -11.3547 -11.3231 -11.3054 -11.2546 -11.2377
   -11.0762 -10.9807 -10.9476 -10.9314 -10.3640 -10.0550  -9.9510  -9.8956
    -9.8709  -9.7910  -9.7708  -9.5522  -9.4749  -9.4258  -9.3399  -9.3259
    -9.3118  -9.2443  -9.2393  -9.2154  -9.1612  -9.1303  -9.1021  -9.0883
    -9.0650  -8.9966  -8.9394  -8.9175  -8.8905  -8.8598  -8.8186  -8.8044
    -8.7784  -8.7550  -8.7274  -8.6383  -8.6156  -8.5719  -8.5621  -8.4956
    -8.4218  -8.3888  -8.3709  -8.3095  -8.2607  -8.2469  -8.2208  -8.2039
    -8.1377  -8.1061  -8.0740  -7.9194  -7.7842  -7.7284  -7.6723  -7.6640
    -7.6019  -7.5972  -7.5777  -7.4939  -7.4386  -7.4118  -7.2872  -7.2481
    -7.0976  -7.0864  -7.0825  -7.0211  -6.9665  -6.6621  -6.5475  -6.3980
    -6.3752  -6.3624  -6.3350  -6.3151  -6.2612  -6.2169  -6.1223  -6.0318
    -5.9582  -5.9297  -5.9235  -5.8750  -5.8213  -5.7749  -5.7168  -5.7071
    -5.6862  -5.6635  -5.6288  -5.5740  -5.5530  -5.5102  -5.4566  -5.4197
    -5.3862  -5.3792  -5.3568  -5.3479  -5.3198  -5.2981  -5.2639  -5.2130
    -5.2012  -5.1619  -5.1103  -5.0400  -4.9898  -4.9508  -4.9078  -4.8111
    -4.8016  -4.7752  -4.7450  -4.7238  -4.6831  -4.5962  -4.5488  -4.5017
    -4.4727  -4.4530  -4.3639  -4.3592  -4.3325  -4.2957  -4.2693  -4.2446
    -4.2200  -4.1896  -4.1743  -4.1356  -4.0962  -4.0469  -4.0354  -4.0281
    -3.9936  -3.9756  -3.9555  -3.9356  -3.9214  -3.8772  -3.8395  -3.8164
    -3.7288  -3.6188  -3.5997  -3.5734  -3.5249  -3.5087  -3.4578  -3.4241
    -3.3529  -3.2921  -3.2616  -3.2423  -3.2354  -3.2247  -3.1633  -3.1604
    -3.0910  -3.0782  -3.0062  -2.9733  -2.7929  -2.4047  -2.2245  -1.9075
    -1.7229  -1.6815  -1.6716  -1.5255

     occupation numbers 
     1.0000   1.0000   1.0000   1.0000   1.0000   1.0000   1.0000   1.0000
     1.0000   1.0000   1.0000   1.0000   1.0000   1.0000   1.0000   1.0000
     1.0000   1.0000   1.0000   1.0000   1.0000   1.0000   1.0000   1.0000
     1.0000   1.0000   1.0000   1.0000   1.0000   1.0000   1.0000   1.0000
     1.0000   1.0000   1.0000   1.0000   1.0000   1.0000   1.0000   1.0000
     1.0000   1.0000   1.0000   1.0000   1.0000   1.0000   1.0000   1.0000
     1.0000   1.0000   1.0000   1.0000   1.0000   1.0000   1.0000   1.0000
     1.0000   1.0000   1.0000   1.0000   1.0000   1.0000   1.0000   1.0000
     1.0000   1.0000   1.0000   1.0000   1.0000   1.0000   1.0000   1.0000
     1.0000   1.0000   1.0000   1.0000   1.0000   1.0000   1.0000   1.0000
     1.0000   1.0000   1.0000   1.0000   1.0000   1.0000   1.0000   1.0000
     1.0000   1.0000   1.0000   1.0000   1.0000   1.0000   1.0000   1.0000
     1.0000   1.0000   1.0000   1.0000   1.0000   1.0000   1.0000   1.0000
     1.0000   1.0000   1.0000   1.0000   1.0000   1.0000   1.0000   1.0000
     1.0000   1.0000   1.0000   1.0000   1.0000   1.0000   1.0000   1.0000
     1.0000   1.0000   1.0000   1.0000   1.0000   1.0000   1.0000   1.0000
     1.0000   1.0000   1.0000   1.0000   1.0000   1.0000   1.0000   1.0000
     1.0000   1.0000   1.0000   1.0000   1.0000   1.0000   1.0000   1.0000
     1.0000   1.0000   1.0000   1.0000   1.0000   1.0000   1.0000   1.0000
     1.0000   1.0000   1.0000   1.0000   1.0000   1.0000   1.0000   1.0000
     1.0000   1.0000   1.0000   1.0000   1.0000   1.0000   1.0000   1.0000
     1.0000   1.0000   1.0000   1.0000   1.0000   1.0000   1.0000   1.0000
     1.0000   1.0000   1.0000   1.0000   1.0000   1.0000   1.0000   1.0000
     1.0000   1.0000   1.0000   1.0000   1.0000   1.0000   1.0000   1.0000
     1.0000   1.0000   1.0000   1.0000   1.0000   1.0000   1.0000   1.0000
     1.0000   1.0000   1.0000   1.0000   1.0000   1.0000   1.0000   1.0000
     1.0000   1.0000   1.0000   1.0000   1.0000   1.0000   1.0000   1.0000
     1.0000   1.0000   1.0000   1.0000   1.0000   1.0000   1.0000   1.0000
     1.0000   1.0000   1.0000   1.0000   1.0000   1.0000   1.0000   1.0000
     1.0000   1.0000   1.0000   1.0000   1.0000   1.0000   1.0000   1.0000
     1.0000   1.0000   1.0000   1.0000   1.0000   1.0000   1.0000   1.0000
     1.0000   1.0000   1.0000   1.0000   1.0000   1.0000   1.0000   1.0000
     1.0000   1.0000   1.0000   1.0000   1.0000   1.0000   1.0000   1.0000
     1.0000   1.0000   1.0000   1.0000   1.0000   1.0000   1.0000   1.0000
     1.0000   1.0000   1.0000   1.0000   1.0000   1.0000   1.0000   1.0000
     1.0000   1.0000   1.0000   1.0000

          k =-0.5000-0.7444-1.2047 ( 95242 PWs)   bands (ev):

   -59.5631 -59.5134 -59.4806 -59.4294 -59.4151 -59.3651 -59.3647 -59.3137
   -36.0753 -35.9957 -35.9321 -35.8800 -35.8482 -35.8261 -35.8097 -35.7632
   -35.7439 -35.7201 -35.7135 -35.6935 -35.6794 -35.6527 -35.6414 -35.6307
   -35.6254 -35.6229 -35.6007 -35.5666 -35.5438 -35.5125 -35.4806 -35.4293
   -24.3743 -24.2527 -24.0916 -23.9133 -23.8066 -23.7608 -23.7357 -23.7061
   -23.6504 -23.6450 -23.6223 -23.5802 -22.9230 -22.8294 -22.7730 -22.7058
   -22.4747 -22.2416 -22.0626 -21.8701 -21.7162 -21.6166 -21.4602 -21.4496
   -21.4196 -21.4100 -21.4018 -21.3860 -21.3757 -21.3669 -21.3506 -21.3468
   -21.3003 -21.2955 -19.2980 -19.1992 -19.1392 -19.0718 -19.0702 -18.9676
   -18.9080 -18.8418 -18.4007 -18.1074 -17.9167 -17.8772 -17.8634 -17.8467
   -16.7519 -16.5521 -16.4125 -16.4093 -16.2532 -16.1785 -16.1278 -15.8796
   -15.6451 -15.6360 -15.6231 -15.5789 -14.2044 -13.9118 -13.7197 -13.7112
   -13.6763 -13.6628 -13.6580 -13.4043 -13.1939 -13.1463 -13.1337 -13.0736
   -11.8123 -11.5346 -11.4899 -11.3701 -11.3231 -11.2997 -11.2502 -11.2027
   -11.0787 -11.0322 -10.9477 -10.9303 -10.3204 -10.0579 -10.0001  -9.8965
    -9.8748  -9.7749  -9.7337  -9.5543  -9.5348  -9.4223  -9.3464  -9.3119
    -9.2762  -9.2683  -9.2109  -9.2022  -9.1577  -9.1224  -9.1025  -9.0913
    -9.0535  -9.0093  -8.9484  -8.9178  -8.8803  -8.8737  -8.8212  -8.8130
    -8.7820  -8.7665  -8.7460  -8.6338  -8.6163  -8.6021  -8.5568  -8.4913
    -8.4112  -8.3868  -8.3528  -8.2796  -8.2523  -8.2389  -8.2306  -8.1963
    -8.1422  -8.1142  -8.0940  -7.9194  -7.7729  -7.7385  -7.6679  -7.6630
    -7.6076  -7.5957  -7.5789  -7.4956  -7.4381  -7.4119  -7.2869  -7.2488
    -7.0970  -7.0868  -7.0821  -7.0220  -6.9705  -6.6711  -6.5180  -6.4045
    -6.3869  -6.3595  -6.3332  -6.3186  -6.2629  -6.2232  -6.1228  -6.0166
    -5.9576  -5.9388  -5.9174  -5.8886  -5.8200  -5.7648  -5.7289  -5.7063
    -5.6782  -5.6591  -5.6176  -5.5729  -5.5553  -5.4836  -5.4560  -5.4222
    -5.3992  -5.3872  -5.3679  -5.3466  -5.3294  -5.2989  -5.2762  -5.2524
    -5.1741  -5.1234  -5.1080  -5.0535  -5.0265  -4.9559  -4.8996  -4.8071
    -4.7820  -4.7615  -4.7414  -4.7018  -4.6626  -4.6294  -4.5979  -4.5232
    -4.4893  -4.4062  -4.3822  -4.3398  -4.3169  -4.2989  -4.2791  -4.2342
    -4.1884  -4.1666  -4.1602  -4.1294  -4.0948  -4.0753  -4.0353  -4.0275
    -4.0150  -4.0014  -3.9613  -3.9412  -3.9144  -3.8505  -3.8330  -3.8193
    -3.7159  -3.6234  -3.6169  -3.5969  -3.5353  -3.5106  -3.4707  -3.3942
    -3.3434  -3.3028  -3.2698  -3.2477  -3.2202  -3.2126  -3.1640  -3.1623
    -3.0926  -3.0795  -3.0039  -2.9744  -2.7935  -2.4047  -2.2243  -1.9075
    -1.7230  -1.6818  -1.6717  -1.5259

     occupation numbers 
     1.0000   1.0000   1.0000   1.0000   1.0000   1.0000   1.0000   1.0000
     1.0000   1.0000   1.0000   1.0000   1.0000   1.0000   1.0000   1.0000
     1.0000   1.0000   1.0000   1.0000   1.0000   1.0000   1.0000   1.0000
     1.0000   1.0000   1.0000   1.0000   1.0000   1.0000   1.0000   1.0000
     1.0000   1.0000   1.0000   1.0000   1.0000   1.0000   1.0000   1.0000
     1.0000   1.0000   1.0000   1.0000   1.0000   1.0000   1.0000   1.0000
     1.0000   1.0000   1.0000   1.0000   1.0000   1.0000   1.0000   1.0000
     1.0000   1.0000   1.0000   1.0000   1.0000   1.0000   1.0000   1.0000
     1.0000   1.0000   1.0000   1.0000   1.0000   1.0000   1.0000   1.0000
     1.0000   1.0000   1.0000   1.0000   1.0000   1.0000   1.0000   1.0000
     1.0000   1.0000   1.0000   1.0000   1.0000   1.0000   1.0000   1.0000
     1.0000   1.0000   1.0000   1.0000   1.0000   1.0000   1.0000   1.0000
     1.0000   1.0000   1.0000   1.0000   1.0000   1.0000   1.0000   1.0000
     1.0000   1.0000   1.0000   1.0000   1.0000   1.0000   1.0000   1.0000
     1.0000   1.0000   1.0000   1.0000   1.0000   1.0000   1.0000   1.0000
     1.0000   1.0000   1.0000   1.0000   1.0000   1.0000   1.0000   1.0000
     1.0000   1.0000   1.0000   1.0000   1.0000   1.0000   1.0000   1.0000
     1.0000   1.0000   1.0000   1.0000   1.0000   1.0000   1.0000   1.0000
     1.0000   1.0000   1.0000   1.0000   1.0000   1.0000   1.0000   1.0000
     1.0000   1.0000   1.0000   1.0000   1.0000   1.0000   1.0000   1.0000
     1.0000   1.0000   1.0000   1.0000   1.0000   1.0000   1.0000   1.0000
     1.0000   1.0000   1.0000   1.0000   1.0000   1.0000   1.0000   1.0000
     1.0000   1.0000   1.0000   1.0000   1.0000   1.0000   1.0000   1.0000
     1.0000   1.0000   1.0000   1.0000   1.0000   1.0000   1.0000   1.0000
     1.0000   1.0000   1.0000   1.0000   1.0000   1.0000   1.0000   1.0000
     1.0000   1.0000   1.0000   1.0000   1.0000   1.0000   1.0000   1.0000
     1.0000   1.0000   1.0000   1.0000   1.0000   1.0000   1.0000   1.0000
     1.0000   1.0000   1.0000   1.0000   1.0000   1.0000   1.0000   1.0000
     1.0000   1.0000   1.0000   1.0000   1.0000   1.0000   1.0000   1.0000
     1.0000   1.0000   1.0000   1.0000   1.0000   1.0000   1.0000   1.0000
     1.0000   1.0000   1.0000   1.0000   1.0000   1.0000   1.0000   1.0000
     1.0000   1.0000   1.0000   1.0000   1.0000   1.0000   1.0000   1.0000
     1.0000   1.0000   1.0000   1.0000   1.0000   1.0000   1.0000   1.0000
     1.0000   1.0000   1.0000   1.0000   1.0000   1.0000   1.0000   1.0000
     1.0000   1.0000   1.0000   1.0000   1.0000   1.0000   1.0000   1.0000
     1.0000   1.0000   1.0000   1.0000

     highest occupied level (ev):    -1.5254

!    total energy              =   -3500.74939632 Ry
     estimated scf accuracy    <       0.00000043 Ry

     The total energy is the sum of the following terms:
     one-electron contribution =   -8482.13071406 Ry
     hartree contribution      =    4355.91567970 Ry
     xc contribution           =    -692.40547977 Ry
     ewald contribution        =    1956.83698046 Ry
     DFT-D3 Dispersion         =      -0.33333177 Ry
     one-center paw contrib.   =    -638.63253089 Ry
      -> PAW hartree energy AE =       0.00000000 Ry
      -> PAW hartree energy PS =       0.00000000 Ry
      -> PAW xc energy AE      =       0.00000000 Ry
      -> PAW xc energy PS      =       0.00000000 Ry
      -> total E_H with PAW    =    4355.91567970 Ry
      -> total E_XC with PAW   =    -692.40547977 Ry

     convergence has been achieved in  22 iterations

     Writing all to output data dir ./tmp/MIL125_NH2_convtest.save/ :
     XML data file, charge density, pseudopotentials, collected wavefunctions

     init_run     :    109.01s CPU    110.57s WALL (       1 calls)
     electrons    :   5832.83s CPU   5912.87s WALL (       1 calls)

     Called by init_run:
     wfcinit      :    107.05s CPU    108.38s WALL (       1 calls)
     wfcinit:atom :      0.11s CPU      0.11s WALL (       8 calls)
     wfcinit:wfcr :    105.96s CPU    107.25s WALL (       8 calls)
     potinit      :      0.32s CPU      0.34s WALL (       1 calls)
     hinit0       :      0.15s CPU      0.16s WALL (       1 calls)

     Called by electrons:
     c_bands      :   5363.51s CPU   5428.10s WALL (      22 calls)
     sum_band     :    440.50s CPU    451.50s WALL (      22 calls)
     v_of_rho     :      3.59s CPU      3.87s WALL (      23 calls)
     v_h          :      0.24s CPU      0.26s WALL (      23 calls)
     v_xc         :      3.35s CPU      3.60s WALL (      23 calls)
     newd         :     21.55s CPU     25.71s WALL (      23 calls)
     PAW_pot      :      3.18s CPU      3.19s WALL (      23 calls)
     mix_rho      :      0.59s CPU      0.65s WALL (      22 calls)
     energy_dftd3 :      0.70s CPU      0.71s WALL (       1 calls)

     Called by c_bands:
     init_us_2    :     10.26s CPU     10.36s WALL (     360 calls)
     cegterg      :   5348.96s CPU   5413.03s WALL (     176 calls)

     Called by sum_band:
     sum_band:wei :      0.00s CPU      0.00s WALL (      22 calls)
     sum_band:loo :    417.24s CPU    424.06s WALL (      22 calls)
     sum_band:buf :      0.87s CPU      1.11s WALL (     176 calls)
     sum_band:ini :      5.03s CPU      5.05s WALL (     176 calls)
     sum_band:cal :    323.89s CPU    325.26s WALL (     176 calls)
     sum_band:bec :      1.03s CPU      1.04s WALL (     176 calls)
     addusdens    :     19.89s CPU     24.03s WALL (      22 calls)
                                        0.00s GPU  (      22 calls)
     addusd:skk   :      0.54s CPU      0.95s WALL (     110 calls)
                                        0.00s GPU  (     110 calls)

     Called by *egterg:
     cdiaghg      :    202.27s CPU    205.83s WALL (    1329 calls)
     cegterg:over :    655.22s CPU    657.09s WALL (    1153 calls)
     cegterg:upda :    298.22s CPU    300.67s WALL (    1153 calls)
     cegterg:last :    930.42s CPU    934.27s WALL (     458 calls)
     cdiaghg:chol :      9.38s CPU      9.41s WALL (    1329 calls)
     cdiaghg:inve :      3.81s CPU      3.82s WALL (    1329 calls)
     cdiaghg:para :     55.61s CPU     56.69s WALL (    2658 calls)
     h_psi        :   2318.71s CPU   2360.91s WALL (    1337 calls)
     s_psi        :    884.72s CPU    886.94s WALL (    1337 calls)
     g_psi        :      1.02s CPU      1.03s WALL (    1153 calls)

     Called by h_psi:
     h_psi:calbec :    979.46s CPU    983.61s WALL (    1337 calls)
     vloc_psi     :    449.66s CPU    483.36s WALL (    1337 calls)
     add_vuspsi   :    887.80s CPU    890.06s WALL (    1337 calls)

     General routines
     calbec       :   1303.34s CPU   1308.86s WALL (    1513 calls)
     fft          :      5.24s CPU      5.51s WALL (     297 calls)
     ffts         :      0.11s CPU      0.11s WALL (      45 calls)
     fftw         :    432.34s CPU    463.09s WALL (  352682 calls)
     interpolate  :      0.25s CPU      0.26s WALL (      23 calls)

     Parallel routines

     PAW routines
     PAW_pot      :      3.18s CPU      3.19s WALL (      23 calls)

     PWSCF        :      1h39m CPU      1h40m WALL


   This run was terminated on:  14:30:36  10Apr2025            

=------------------------------------------------------------------------------=
   JOB DONE.
=------------------------------------------------------------------------------=
