
                                 *****************
                                 * O   R   C   A *
                                 *****************

                                            #,                                       
                                            ###                                      
                                            ####                                     
                                            #####                                    
                                            ######                                   
                                           ########,                                 
                                     ,,################,,,,,                         
                               ,,#################################,,                 
                          ,,##########################################,,             
                       ,#########################################, ''#####,          
                    ,#############################################,,   '####,        
                  ,##################################################,,,,####,       
                ,###########''''           ''''###############################       
              ,#####''   ,,,,##########,,,,          '''####'''          '####       
            ,##' ,,,,###########################,,,                        '##       
           ' ,,###''''                  '''############,,,                           
         ,,##''                                '''############,,,,        ,,,,,,###''
      ,#''                                            '''#######################'''  
     '                                                          ''''####''''         
             ,#######,   #######,   ,#######,      ##                                
            ,#'     '#,  ##    ##  ,#'     '#,    #''#        ,####,   ,####,        
            ##       ##  ##   ,#'  ##            #'  '#       #'       #'  '#        
            ##       ##  #######   ##           ,######,      #####,   #    #        
            '#,     ,#'  ##    ##  '#,     ,#' ,#      #,     #,   #   #,  ,#        
             '#######'   ##     ##  '#######'  #'      '#     '####' # '####'        



                #########################################################
                #                        -***-                          #
                #          Department of theory and spectroscopy        #
                #                                                       #
                #                      Frank Neese                      #
                #                                                       #
                #     Directorship, Architecture, Infrastructure        #
                #                    SHARK, DRIVERS                     #
                #        Core code/Algorithms in most modules           #
                #                                                       #
                #        Max Planck Institute fuer Kohlenforschung      #
                #                Kaiser Wilhelm Platz 1                 #
                #                 D-45470 Muelheim/Ruhr                 #
                #                      Germany                          #
                #                                                       #
                #                  All rights reserved                  #
                #                        -***-                          #
                #########################################################


                         Program Version 6.0.1  -  RELEASE   -


 With contributions from (in alphabetic order):
[Max-Planck-Institut fuer Kohlenforschung]                               
  Daniel Aravena         : Magnetic Suceptibility                        
  Michael Atanasov       : Ab Initio Ligand Field Theory (pilot matlab implementation)
  Alexander A. Auer      : GIAO ZORA, VPT2 properties, NMR spectrum      
  Ute Becker             : All parallelization in ORCA, NUMFREQ, NUMCALC 
  Giovanni Bistoni       : ED, misc. LED, open-shell LED, HFLD           
  Martin Brehm           : Molecular dynamics                            
  Dmytro Bykov           : pre 5.0 version of the SCF Hessian            
  Marcos Casanova-Páez   : Triplet and SCS-CIS(D). UHF-(DLPNO)-IP/EA/STEOM-CCSD. UHF-CVS-IP/STEOM-CCSD   
  Vijay G. Chilkuri      : MRCI spin determinant printing, contributions to CSF-ICE 
  Pauline Colinet        : FMM embedding                                 
  Dipayan Datta          : RHF DLPNO-CCSD density                        
  Achintya Kumar Dutta   : EOM-CC, STEOM-CC                              
  Nicolas Foglia         : Exact transition moments, OPA infrastructure, MCD improvements    
  Dmitry Ganyushin       : Spin-Orbit,Spin-Spin,Magnetic field MRCI      
  Miquel Garcia-Rates    : C-PCM and meta-GGA Hessian, CCSD/C-PCM, Gaussian charge scheme 
  Tiago L. C. Gouveia    : GS-ROHF, GS-ROCIS                             
  Yang Guo               : DLPNO-NEVPT2, F12-NEVPT2, CIM, IAO-localization        
  Andreas Hansen         : Spin unrestricted coupled pair/coupled cluster methods 
  Ingolf Harden          : AUTO-CI MPn and infrastructure                
  Benjamin Helmich-Paris : MC-RPA, TRAH-(SCF,CASSCF), AVAS, COSX integrals, SCF dyn. polar. 
  Lee Huntington         : MR-EOM, pCC                                   
  Robert Izsak           : Overlap fitted RIJCOSX, COSX-SCS-MP3, EOM     
  Riya Kayal             : Wick's Theorem for AUTO-CI, AUTO-CI UHF-CCSDT 
  Emily Kempfer          : AUTO-CI, RHF CISDT and CCSDT                  
  Christian Kollmar      : KDIIS, OOCD, Brueckner-CCSD(T), CCSD density, CASPT2, CASPT2-K, improved NEVPT2 
  Axel Koslowski         : Symmetry handling                             
  Simone Kossmann        : meta-GGA functionals, TD-DFT gradient, OOMP2, (MP2 Hessian; deprecated post 5.0) 
  Lucas Lang             : DCDCAS                                        
  Marvin Lechner         : AUTO-CI (C++ implementation), FIC-MRCC        
  Spencer Leger          : CASSCF response                               
  Dagmar Lenk            : GEPOL surface, SMD, ORCA-2-JSON               
  Dimitrios Liakos       : Extrapolation schemes; Compound Job, initial MDCI parallelization 
  Dimitrios Manganas     : Further ROCIS development; embedding schemes. LFT, Crystal Embedding 
  Dimitrios Pantazis     : SARC Basis sets                               
  Anastasios Papadopoulos: AUTO-CI, single reference methods and gradients 
  Taras Petrenko         : pre 6.0 DFT Hessian and TD-DFT gradient, (ASA, deprecated), ECA, 1-Electron XAS/XES, NRVS 
  Peter Pinski           : DLPNO-MP2, DLPNO-MP2 Gradient                 
  Christoph Reimann      : Effective Core Potentials                     
  Marius Retegan         : Local ZFS, SOC                                
  Christoph Riplinger    : Optimizer, TS searches, QM/MM, DLPNO-CCSD(T), (RO)-DLPNO pert. Triples 
  Michael Roemelt        : Original ROCIS implementation                 
  Masaaki Saitow         : Open-shell DLPNO-CCSD energy and density      
  Barbara Sandhoefer     : DKH picture change effects                    
  Kantharuban Sivalingam : CASSCF convergence/infrastructure, NEVPT2 and variants, FIC-MRCI 
  Bernardo de Souza      : ESD, SOC TD-DFT                               
  Georgi L. Stoychev     : AutoAux, RI-MP2 NMR, DLPNO-MP2 response, X2C  
  Van Anh Tran           : RI-MP2 g-tensors                              
  Willem Van den Heuvel  : Paramagnetic NMR                              
  Zikuan Wang            : NOTCH, Electric field optimization            
  Frank Wennmohs         : Technical directorship and infrastructure     
  Hang Xu                : AUTO-CI-Response properties                   
                                                                         
[FACCTs GmbH]                                                            
  Markus Bursch, Miquel Garcia-Rates, Christoph Riplinger, Bernardo de Souza, Georgi L. Stoychev 
                                                                 
  APM, Basis sets (HGBS, AHGBS, def-TZVP (Ac-Lr), def2-XVPD (La-Lu)), CI-OPT, improved COSX, DLPNO-Multilevel,           
  DOCKER, DRACO, updates on ESD, GOAT, IRC, LR-CPCM, MBIS, meta-GGA TD-DFT gradient, ML-optimized integration grids, 
  MM, NACMEs, nearIR, NEB, NEB-TS, NL-DFT gradient (VV10), 2- and 3-layer-ONIOM, interface openCOSMO-RS, QMMM,   
  Crystal-QMMM, SF, symmetry and pop. for TD-DFT, r2SCAN hybrids, SOLVATOR                                   
                                                                         
[Other institutions]                                                     
  V. Asgeirsson          : NEB                                           
  Christoph Bannwarth    : sTDA-DFT, sTD-DFT, PBEh-3c, B97-3c, D3        
  Sebastian Ehlert       : rSCAN, r2SCAN, r2SCAN-3c, D4, dhf basis sets  
  Marvin Friede          : D4 for Fr, Ra, Ac-Lr                          
  Lars Goerigk           : TD-DFT with DH, B97 family of functionals     
  Stefan Grimme          : VdW corrections, initial TS optimization, DFT functionals, gCP, sTDA/sTD-DF 
  Waldemar Hujo          : DFT-NL                                        
  H. Jonsson             : NEB                                           
  Holger Kruse           : gCP                                           
  Marcel Mueller         : wB97X-3c, vDZP basis set                      
  Hagen Neugebauer       : wr2SCAN                                       
  Tobias Risthaus        : range-separated hybrid DFT                    
  Lukas Wittmann         : regularized MP2, r2SCAN double-hybrids, wr2SCAN        
                                                                         
We gratefully acknowledge several colleagues who have allowed us to      
interface, adapt or use parts of their codes:                            
  Ed Valeev, F. Pavosevic, A. Kumar             : LibInt (2-el integral package), F12 methods 
  Garnet Chan, S. Sharma, J. Yang, R. Olivares  : DMRG                   
  Ulf Ekstrom                                   : XCFun DFT Library      
  Mihaly Kallay                                 : mrcc  (arbitrary order and MRCC methods)
  Frank Weinhold                                : gennbo (NPA and NBO analysis)           
  Simon Mueller                                 : openCOSMO-RS                            
  Christopher J. Cramer and Donald G. Truhlar   : smd solvation model                     
  S Lehtola, MJT Oliveira, MAL Marques          : LibXC Library                           
  Liviu Ungur et al                             : ANISO software                          


 Your calculation uses the libint2 library for the computation of 2-el integrals
 For citations please refer to: http://libint.valeyev.net

 Your ORCA version has been built with support for libXC version: 6.2.2
 For citations please refer to: https://libxc.gitlab.io

 This ORCA versions uses:
   CBLAS   interface :  Fast vector & matrix operations
   LAPACKE interface :  Fast linear algebra routines
   SCALAPACK package :  Parallel linear algebra routines
   Shared memory     :  Shared parallel matrices
   BLAS/LAPACK       :  OpenBLAS 0.3.27  USE64BITINT DYNAMIC_ARCH NO_AFFINITY SkylakeX SINGLE_THREADED
        Core in use  :  SkylakeX
   Copyright (c) 2011-2014, The OpenBLAS Project


NOTE: MaxCore=5000 MB was set to SCF,MP2,MDCI,CIPSI,MRCI and CIS
      => If you want to overwrite this, your respective input block should be placed after the MaxCore statement
Your calculation utilizes the atom-pairwise dispersion correction
based on EEQ partial charges (D4)


Warning: RI is on but no J-basis has been assigned. Assigning Def2/J (nothing to worry about!)
================================================================================

----- Orbital basis set information -----
Your calculation utilizes the basis: def2-TZVP
   F. Weigend and R. Ahlrichs, Phys. Chem. Chem. Phys. 7, 3297 (2005).

----- AuxJ basis set information -----
Your calculation utilizes the auxiliary basis: def2/J
   F. Weigend, Phys. Chem. Chem. Phys. 8, 1057 (2006).

================================================================================
                                        WARNINGS
                       Please study these warnings very carefully!
================================================================================


WARNING: Geometry Optimization
  ===> : Switching off AutoStart
         For restart on a previous wavefunction, please use MOREAD

================================================================================
                                       INPUT FILE
================================================================================
NAME = input.inp
|  1> ! Opt B3LYP D4 def2-TZVP TightSCF TightOpt
|  2> 
|  3> %maxcore 5000
|  4> 
|  5> %pal
|  6> nprocs 30
|  7> end
|  8> 
|  9> * xyz 0 1
| 10> S           3.73207598427367      0.94642508541177      3.25512193222003
| 11>   S           1.01047434605466      1.69643167246516      3.48392745406833
| 12>   F           5.83050154876021      2.26862771239232      4.12668439733104
| 13>   F           3.95894275034168      3.33746399875074      4.38065623124884
| 14>   F           4.44547772214358      1.67871803009039      5.69190459526208
| 15>   F           1.37669439680240      2.69109600647900      5.90613024446874
| 16>   F          -0.65914999017677      2.81829589412701      5.16167125075670
| 17>   F           0.12581326641123      0.91865583670035      5.85924732847525
| 18>   O           3.83863369767986      1.59655972710447      1.96402844262214
| 19>   O           4.43531100552123     -0.28971558944696      3.44684746005778
| 20>   O          -0.06258136214075      0.93566434794703      2.88805635478706
| 21>   O           1.29630552056842      2.99229138018000      2.91114467785561
| 22>   N           2.25421367997275      0.77227073258178      3.77713840761969
| 23>   C           4.53890157046626      2.13807864988194      4.44299343511181
| 24>   C           0.43306996980339      2.04594358000002      5.21954318911049
| 25>   N           1.26715453057345      0.18694476924173      0.00109370146085
| 26>   N           0.23868849522113      2.09054827342548      0.00226434954221
| 27>   C           2.31976475736840     -0.82567337445527      0.18441248186557
| 28>   C           2.00073847617209     -1.79198920368411      1.31838779810677
| 29>   C           3.14494797567229     -2.77982330716833      1.54023150954569
| 30>   C           1.40936353094356      1.49284794695450      0.21656495574893
| 31>   C          -0.04117892611610     -0.05992507834224     -0.34700976697134
| 32>   C          -0.68599286249668      1.13275693852470     -0.34521278179138
| 33>   C           2.88694624949217     -3.69554481422613      2.73329260315291
| 34>   C          -0.04287889566700      3.50388416136418      0.22799473017963
| 35>   H           3.23880070619317     -0.28081857604636      0.39110208247691
| 36>   H           2.43888006811827     -1.35133327802983     -0.76526525022045
| 37>   H           1.81837415538168     -1.22391312801821      2.23104407680722
| 38>   H           1.07781478000738     -2.33704263495983      1.09412830971145
| 39>   H           4.06700740032904     -2.22031498777052      1.71362478042882
| 40>   H           3.29660090345799     -3.37843913211665      0.63464122319410
| 41>   H           2.31171585731850      1.96223200930492      0.57420008370228
| 42>   H          -0.40137723191142     -1.05038763007368     -0.55364948650394
| 43>   H          -1.71357308958637      1.37642610775156     -0.54336129732069
| 44>   H           1.96831885159783     -4.27376233459454      2.60148254013741
| 45>   H           3.70860750039271     -4.40030098755518      2.87149050435642
| 46>   H           2.79075003609551     -3.11045294545002      3.64957023559643
| 47>   H          -0.70354534377118      3.60475470037979      1.08605847899750
| 48>   H          -0.50180335346628      3.92757450028710     -0.66410183937186
| 49>   H           0.88777332219770      4.01455694059185      0.45212957617261
| 50> *
| 51> 
| 52>                          ****END OF INPUT****
================================================================================

                       *****************************
                       * Geometry Optimization Run *
                       *****************************

Geometry optimization settings:
Update method            Update   .... BFGS
Choice of coordinates    CoordSys .... (2022) Redundant Internals
Initial Hessian          InHess   .... Almloef's Model
Max. no of cycles        MaxIter  .... 120

Convergence Tolerances:
Energy Change            TolE     ....  1.0000e-06 Eh
Max. Gradient            TolMAXG  ....  1.0000e-04 Eh/bohr
RMS Gradient             TolRMSG  ....  3.0000e-05 Eh/bohr
Max. Displacement        TolMAXD  ....  1.0000e-03 bohr
RMS Displacement         TolRMSD  ....  6.0000e-04 bohr
Strict Convergence                .... False

------------------------------------------------------------------------------
                        ORCA OPTIMIZATION COORDINATE SETUP
------------------------------------------------------------------------------

The optimization will be done in redundant internal coordinates (2022)
Making redundant internal coordinates   ...  (2022 redundants) done
Evaluating the initial hessian          ...  (Almloef) done
Evaluating the coordinates              ...  done
Calculating the B-matrix                .... done
Calculating the G-matrix                .... done
Diagonalizing the G-matrix              .... done
Small eigenvalue found = 1.649e-02
Small eigenvalue found = 2.286e-02
Small eigenvalue found = 2.506e-02
The first mode is                       ....  120
The number of degrees of freedom        ....  114

    -----------------------------------------------------------------
                    Redundant Internal Coordinates


    -----------------------------------------------------------------
         Definition                    Initial Value    Approx d2E/dq
    -----------------------------------------------------------------
      1. B(O   8,S   0)                  1.4495         1.212743   
      2. B(O   9,S   0)                  1.4350         1.278744   
      3. B(O  10,S   1)                  1.4440         1.237119   
      4. B(O  11,S   1)                  1.4453         1.231228   
      5. B(N  12,S   1)                  1.5770         0.759092   
      6. B(N  12,S   0)                  1.5770         0.759115   
      7. B(C  13,S   0)                  1.8660         0.293117   
      8. B(C  13,F   4)                  1.3340         0.638753   
      9. B(C  13,F   2)                  1.3362         0.633672   
     10. B(C  13,F   3)                  1.3337         0.639419   
     11. B(C  14,S   1)                  1.8622         0.297226   
     12. B(C  14,F   6)                  1.3390         0.627181   
     13. B(C  14,F   5)                  1.3334         0.640047   
     14. B(C  14,F   7)                  1.3321         0.643270   
     15. B(C  17,N  15)                  1.4721         0.413941   
     16. B(C  18,C  17)                  1.5236         0.382422   
     17. B(C  19,C  18)                  1.5278         0.376573   
     18. B(C  20,N  16)                  1.3318         0.693034   
     19. B(C  20,N  15)                  1.3312         0.694580   
     20. B(C  21,N  15)                  1.3762         0.588752   
     21. B(C  22,C  21)                  1.3558         0.708357   
     22. B(C  22,N  16)                  1.3759         0.589316   
     23. B(C  23,C  19)                  1.5259         0.379183   
     24. B(C  24,N  16)                  1.4587         0.434808   
     25. B(H  25,C  17)                  1.0882         0.362468   
     26. B(H  25,O   8)                  2.5216         0.001677   
     27. B(H  25,N  15)                  2.0636         0.009022   
     28. B(H  26,C  17)                  1.0920         0.357506   
     29. B(H  27,C  18)                  1.0904         0.359610   
     30. B(H  27,N  12)                  2.5622         0.001444   
     31. B(H  28,C  18)                  1.0951         0.353464   
     32. B(H  29,C  19)                  1.0924         0.356957   
     33. B(H  29,O   9)                  2.6205         0.001166   
     34. B(H  30,C  19)                  1.0961         0.352121   
     35. B(H  31,C  20)                  1.0782         0.376086   
     36. B(H  31,N  16)                  2.1543         0.006464   
     37. B(H  31,N  15)                  2.1380         0.006863   
     38. B(H  31,O   8)                  2.0969         0.007983   
     39. B(H  32,C  21)                  1.0740         0.381912   
     40. B(H  33,C  22)                  1.0745         0.381194   
     41. B(H  34,C  23)                  1.0934         0.355593   
     42. B(H  35,C  23)                  1.0913         0.358402   
     43. B(H  36,C  23)                  1.0914         0.358255   
     44. B(H  37,C  24)                  1.0876         0.363255   
     45. B(H  38,C  24)                  1.0890         0.361401   
     46. B(H  39,O  11)                  2.6942         0.000890   
     47. B(H  39,C  24)                  1.0850         0.366830   
     48. A(N  12,S   0,C  13)          105.3670         0.435773   
     49. A(O   9,S   0,N  12)          108.6561         0.569612   
     50. A(O   8,S   0,O   9)          117.9918         0.623375   
     51. A(O   9,S   0,C  13)          104.6646         0.479217   
     52. A(O   8,S   0,N  12)          114.4110         0.563882   
     53. A(O   8,S   0,C  13)          104.4066         0.474564   
     54. A(N  12,S   1,C  14)          100.4418         0.436865   
     55. A(O  10,S   1,C  14)          104.6586         0.477527   
     56. A(O  10,S   1,N  12)          110.7347         0.566023   
     57. A(O  11,S   1,N  12)          116.3036         0.565508   
     58. A(O  10,S   1,O  11)          117.1143         0.621206   
     59. A(O  11,S   1,C  14)          105.2121         0.477107   
     60. A(S   0,O   8,H  25)          101.7824         0.184706   
     61. A(S   0,O   8,H  31)          127.9578         0.225243   
     62. A(H  25,O   8,H  31)           62.8169         0.113695   
     63. A(S   0,O   9,H  29)          118.5144         0.178215   
     64. A(S   1,O  11,H  39)          132.2141         0.172195   
     65. A(S   0,N  12,S   1)          127.7947         0.516102   
     66. A(S   0,N  12,H  27)           92.6195         0.172216   
     67. A(S   1,N  12,H  27)          102.1347         0.172216   
     68. A(F   2,C  13,F   4)          108.8429         0.428574   
     69. A(S   0,C  13,F   4)          110.2303         0.398484   
     70. A(F   2,C  13,F   3)          108.7486         0.428654   
     71. A(S   0,C  13,F   3)          110.8866         0.398557   
     72. A(S   0,C  13,F   2)          109.2478         0.397925   
     73. A(F   3,C  13,F   4)          108.8431         0.429269   
     74. A(F   6,C  14,F   7)          108.7085         0.428324   
     75. A(F   5,C  14,F   7)          108.9902         0.429887   
     76. A(S   1,C  14,F   7)          111.1167         0.399956   
     77. A(F   5,C  14,F   6)          108.6887         0.427939   
     78. A(S   1,C  14,F   6)          108.7174         0.398179   
     79. A(S   1,C  14,F   5)          110.5656         0.399603   
     80. A(C  20,N  15,C  21)          108.5716         0.433197   
     81. A(C  17,N  15,C  21)          126.0085         0.395147   
     82. A(C  17,N  15,C  20)          125.3297         0.406818   
     83. A(C  22,N  16,C  24)          125.7203         0.398641   
     84. A(C  20,N  16,C  24)          125.4239         0.410214   
     85. A(C  20,N  16,C  22)          108.6009         0.433098   
     86. A(N  15,C  17,C  18)          112.2862         0.368966   
     87. A(H  25,C  17,H  26)          108.3055         0.290808   
     88. A(C  18,C  17,H  26)          111.3961         0.325182   
     89. A(N  15,C  17,H  26)          107.5079         0.327475   
     90. A(C  18,C  17,H  25)          110.6720         0.325920   
     91. A(N  15,C  17,H  25)          106.4468         0.328220   
     92. A(C  17,C  18,C  19)          111.1812         0.365308   
     93. A(H  27,C  18,H  28)          106.8443         0.289929   
     94. A(C  19,C  18,H  28)          109.8224         0.323755   
     95. A(C  17,C  18,H  28)          109.8603         0.324575   
     96. A(C  19,C  18,H  27)          109.9119         0.324672   
     97. A(C  17,C  18,H  27)          109.1202         0.325496   
     98. A(H  29,C  19,H  30)          107.1024         0.289420   
     99. A(C  23,C  19,H  30)          109.9755         0.323919   
    100. A(C  18,C  19,H  30)          109.6797         0.323552   
    101. A(C  23,C  19,H  29)          109.0248         0.324646   
    102. A(C  18,C  19,H  29)          108.9067         0.324278   
    103. A(C  18,C  19,C  23)          112.0185         0.364777   
    104. A(N  15,C  20,N  16)          108.6825         0.446139   
    105. A(N  16,C  20,H  31)          126.4180         0.360070   
    106. A(N  15,C  20,H  31)          124.7630         0.360207   
    107. A(C  22,C  21,H  32)          130.6929         0.364633   
    108. A(N  15,C  21,H  32)          122.2053         0.351158   
    109. A(N  15,C  21,C  22)          107.0978         0.437599   
    110. A(C  21,C  22,H  33)          130.8483         0.364515   
    111. A(N  16,C  22,H  33)          122.1009         0.351103   
    112. A(N  16,C  22,C  21)          107.0416         0.437675   
    113. A(H  34,C  23,H  36)          108.0983         0.290031   
    114. A(C  19,C  23,H  36)          110.4623         0.324839   
    115. A(H  34,C  23,H  35)          107.8376         0.290050   
    116. A(C  19,C  23,H  35)          111.0545         0.324861   
    117. A(C  19,C  23,H  34)          111.4161         0.324442   
    118. A(H  35,C  23,H  36)          107.8338         0.290389   
    119. A(H  38,C  24,H  39)          110.3395         0.291853   
    120. A(H  37,C  24,H  39)          108.3254         0.292088   
    121. A(N  16,C  24,H  39)          108.8109         0.331554   
    122. A(H  37,C  24,H  38)          110.7450         0.291403   
    123. A(N  16,C  24,H  38)          109.3623         0.330737   
    124. A(N  16,C  24,H  37)          109.2203         0.331017   
    125. A(O   8,H  25,C  17)          133.8001         0.148261   
    126. A(N  12,H  27,C  18)          151.9466         0.146189   
    127. A(O   9,H  29,C  19)          126.9391         0.143394   
    128. A(O   8,H  31,C  20)          138.8840         0.174068   
    129. A(O  11,H  39,C  24)           98.0494         0.140477   
    130. D(H  31,O   8,S   0,O   9)    116.1586         0.036434   
    131. D(H  31,O   8,S   0,N  12)    -13.5636         0.036434   
    132. D(H  31,O   8,S   0,C  13)   -128.2121         0.036434   
    133. D(H  25,O   8,S   0,O   9)     51.5721         0.036434   
    134. D(H  25,O   8,S   0,N  12)    -78.1501         0.036434   
    135. D(H  29,O   9,S   0,C  13)   -167.9820         0.037492   
    136. D(H  29,O   9,S   0,O   8)    -52.4926         0.037492   
    137. D(H  29,O   9,S   0,N  12)     79.8411         0.037492   
    138. D(H  39,O  11,S   1,C  14)   -141.0896         0.034587   
    139. D(H  39,O  11,S   1,O  10)    -25.3767         0.034587   
    140. D(H  39,O  11,S   1,N  12)    108.7943         0.034587   
    141. D(H  27,N  12,S   0,O   8)     77.6587         0.014045   
    142. D(S   1,N  12,S   0,O   8)    -29.9057         0.014045   
    143. D(S   1,N  12,S   0,C  13)     84.1791         0.014045   
    144. D(S   1,N  12,S   0,O   9)   -164.1116         0.014045   
    145. D(H  27,N  12,S   1,O  10)     19.8045         0.014044   
    146. D(H  27,N  12,S   1,O  11)   -117.1444         0.014044   
    147. D(S   0,N  12,S   1,C  14)   -126.9633         0.014044   
    148. D(S   0,N  12,S   1,O  11)    -14.0881         0.014044   
    149. D(H  27,N  12,S   0,O   9)    -56.5472         0.014045   
    150. D(S   0,N  12,S   1,O  10)    122.8608         0.014044   
    151. D(F   2,C  13,S   0,O   9)     61.1026         0.003101   
    152. D(F   3,C  13,S   0,O   9)   -179.0537         0.003101   
    153. D(F   3,C  13,S   0,O   8)     56.3269         0.003101   
    154. D(F   2,C  13,S   0,N  12)    175.6117         0.003101   
    155. D(F   3,C  13,S   0,N  12)    -64.5447         0.003101   
    156. D(F   2,C  13,S   0,O   8)    -63.5167         0.003101   
    157. D(F   6,C  14,S   1,O  10)    -64.0257         0.003147   
    158. D(F   5,C  14,S   1,N  12)     61.8796         0.003147   
    159. D(F   5,C  14,S   1,O  10)    176.7343         0.003147   
    160. D(F   5,C  14,S   1,O  11)    -59.2559         0.003147   
    161. D(F   6,C  14,S   1,N  12)   -178.8804         0.003147   
    162. D(F   6,C  14,S   1,O  11)     59.9841         0.003147   
    163. D(H  26,C  17,N  15,C  20)   -123.3207         0.016634   
    164. D(H  25,C  17,N  15,C  21)    176.4141         0.016634   
    165. D(H  25,C  17,N  15,C  20)     -7.4391         0.016634   
    166. D(C  18,C  17,N  15,C  21)    -62.3352         0.016634   
    167. D(H  26,C  17,N  15,C  21)     60.5325         0.016634   
    168. D(C  18,C  17,N  15,C  20)    113.8116         0.016634   
    169. D(H  27,C  18,C  17,H  26)   -175.9276         0.011648   
    170. D(H  27,C  18,C  17,H  25)     63.5162         0.011648   
    171. D(H  27,C  18,C  17,N  15)    -55.2788         0.011648   
    172. D(C  19,C  18,C  17,H  26)     62.6789         0.011648   
    173. D(C  19,C  18,C  17,H  25)    -57.8772         0.011648   
    174. D(C  19,C  18,C  17,N  15)   -176.6723         0.011648   
    175. D(H  29,C  19,C  18,H  28)    177.2320         0.011313   
    176. D(H  29,C  19,C  18,H  27)    -65.4984         0.011313   
    177. D(H  29,C  19,C  18,C  17)     55.4311         0.011313   
    178. D(C  23,C  19,C  18,H  28)    -62.0917         0.011313   
    179. D(C  23,C  19,C  18,H  27)     55.1779         0.011313   
    180. D(C  23,C  19,C  18,C  17)    176.1074         0.011313   
    181. D(H  31,C  20,N  16,C  22)   -175.1224         0.043172   
    182. D(N  15,C  20,N  16,C  24)    175.2328         0.043172   
    183. D(N  15,C  20,N  16,C  22)      0.7724         0.043172   
    184. D(H  31,C  20,N  15,C  21)    175.2564         0.046697   
    185. D(H  31,C  20,N  15,C  17)     -1.4560         0.046697   
    186. D(N  16,C  20,N  15,C  21)     -0.7225         0.046697   
    187. D(H  31,C  20,N  16,C  24)     -0.6620         0.043172   
    188. D(N  16,C  20,N  15,C  17)   -177.4350         0.046697   
    189. D(H  32,C  21,N  15,C  20)   -178.9481         0.032554   
    190. D(H  32,C  21,N  15,C  17)     -2.2638         0.032554   
    191. D(C  22,C  21,N  15,C  20)      0.3909         0.032554   
    192. D(C  22,C  21,N  15,C  17)    177.0752         0.032554   
    193. D(H  33,C  22,C  21,N  15)   -178.8076         0.035411   
    194. D(N  16,C  22,C  21,H  32)    179.3408         0.035411   
    195. D(N  16,C  22,C  21,N  15)      0.0784         0.035411   
    196. D(H  33,C  22,N  16,C  24)      4.0447         0.030340   
    197. D(H  33,C  22,N  16,C  20)    178.4845         0.030340   
    198. D(C  21,C  22,N  16,C  24)   -174.9605         0.030340   
    199. D(H  33,C  22,C  21,H  32)      0.4548         0.035411   
    200. D(C  21,C  22,N  16,C  20)     -0.5207         0.030340   
    201. D(H  35,C  23,C  19,H  30)     57.2125         0.011462   
    202. D(H  35,C  23,C  19,H  29)    -59.9373         0.011462   
    203. D(H  35,C  23,C  19,C  18)    179.4550         0.011462   
    204. D(H  34,C  23,C  19,H  30)    -63.0236         0.011462   
    205. D(H  34,C  23,C  19,H  29)    179.8266         0.011462   
    206. D(H  34,C  23,C  19,C  18)     59.2189         0.011462   
    207. D(H  39,C  24,N  16,C  22)   -177.9786         0.017275   
    208. D(H  39,C  24,N  16,C  20)      8.4918         0.017275   
    209. D(H  38,C  24,N  16,C  22)    -57.3872         0.017275   
    210. D(H  38,C  24,N  16,C  20)    129.0832         0.017275   
    211. D(H  37,C  24,N  16,C  22)     63.9533         0.017275   
    212. D(H  37,C  24,N  16,C  20)   -109.5763         0.017275   
    213. D(O   8,H  25,C  17,H  26)    163.6614         0.134622   
    214. D(O   8,H  25,C  17,C  18)    -73.9591         0.134622   
    215. D(O   8,H  25,C  17,N  15)     48.3174         0.134622   
    216. D(C  17,H  25,O   8,H  31)    -58.3011         0.001502   
    217. D(C  17,H  25,O   8,S   0)     68.5122         0.001502   
    218. D(N  12,H  27,C  18,H  28)   -152.4241         0.121067   
    219. D(N  12,H  27,C  18,C  19)     88.4648         0.121067   
    220. D(N  12,H  27,C  18,C  17)    -33.6967         0.121067   
    221. D(C  18,H  27,N  12,S   1)    102.0620         0.001501   
    222. D(C  18,H  27,N  12,S   0)    -27.5312         0.001501   
    223. D(O   9,H  29,C  19,H  30)    170.1339         0.118906   
    224. D(O   9,H  29,C  19,C  23)    -70.9082         0.118906   
    225. D(O   9,H  29,C  19,C  18)     51.5907         0.118906   
    226. D(C  19,H  29,O   9,S   0)    -66.4569         0.001501   
    227. D(O   8,H  31,C  20,N  16)    135.5519         0.147326   
    228. D(O   8,H  31,C  20,N  15)    -39.7130         0.147326   
    229. D(C  20,H  31,O   8,H  25)     48.7155         0.001540   
    230. D(C  20,H  31,O   8,S   0)    -34.9985         0.001540   
    231. D(O  11,H  39,C  24,H  38)    168.7331         0.127078   
    232. D(O  11,H  39,C  24,H  37)     47.3523         0.127078   
    233. D(O  11,H  39,C  24,N  16)    -71.2795         0.127078   
    234. D(C  24,H  39,O  11,S   1)     34.5710         0.001500   
    -----------------------------------------------------------------

Number of atoms                         .... 40
Number of degrees of freedom            .... 234


         *************************************************************
         *                GEOMETRY OPTIMIZATION CYCLE   1            *
         *************************************************************
---------------------------------
CARTESIAN COORDINATES (ANGSTROEM)
---------------------------------
  S      3.732076    0.946425    3.255122
  S      1.010474    1.696432    3.483927
  F      5.830502    2.268628    4.126684
  F      3.958943    3.337464    4.380656
  F      4.445478    1.678718    5.691905
  F      1.376694    2.691096    5.906130
  F     -0.659150    2.818296    5.161671
  F      0.125813    0.918656    5.859247
  O      3.838634    1.596560    1.964028
  O      4.435311   -0.289716    3.446847
  O     -0.062581    0.935664    2.888056
  O      1.296306    2.992291    2.911145
  N      2.254214    0.772271    3.777138
  C      4.538902    2.138079    4.442993
  C      0.433070    2.045944    5.219543
  N      1.267155    0.186945    0.001094
  N      0.238688    2.090548    0.002264
  C      2.319765   -0.825673    0.184412
  C      2.000738   -1.791989    1.318388
  C      3.144948   -2.779823    1.540232
  C      1.409364    1.492848    0.216565
  C     -0.041179   -0.059925   -0.347010
  C     -0.685993    1.132757   -0.345213
  C      2.886946   -3.695545    2.733293
  C     -0.042879    3.503884    0.227995
  H      3.238801   -0.280819    0.391102
  H      2.438880   -1.351333   -0.765265
  H      1.818374   -1.223913    2.231044
  H      1.077815   -2.337043    1.094128
  H      4.067007   -2.220315    1.713625
  H      3.296601   -3.378439    0.634641
  H      2.311716    1.962232    0.574200
  H     -0.401377   -1.050388   -0.553649
  H     -1.713573    1.376426   -0.543361
  H      1.968319   -4.273762    2.601483
  H      3.708608   -4.400301    2.871491
  H      2.790750   -3.110453    3.649570
  H     -0.703545    3.604755    1.086058
  H     -0.501803    3.927575   -0.664102
  H      0.887773    4.014557    0.452130

----------------------------
CARTESIAN COORDINATES (A.U.)
----------------------------
  NO LB      ZA    FRAG     MASS         X           Y           Z
   0 S    16.0000    0    32.060    7.052602    1.788484    6.151289
   1 S    16.0000    0    32.060    1.909520    3.205791    6.583669
   2 F     9.0000    0    18.998   11.018051    4.287085    7.798303
   3 F     9.0000    0    18.998    7.481318    6.306893    8.278241
   4 F     9.0000    0    18.998    8.400735    3.172317   10.756141
   5 F     9.0000    0    18.998    2.601575    5.085434   11.160969
   6 F     9.0000    0    18.998   -1.245613    5.325807    9.754145
   7 F     9.0000    0    18.998    0.237753    1.736008   11.072373
   8 O     8.0000    0    15.999    7.253966    3.017061    3.711476
   9 O     8.0000    0    15.999    8.381523   -0.547483    6.513598
  10 O     8.0000    0    15.999   -0.118262    1.768149    5.457636
  11 O     8.0000    0    15.999    2.449662    5.654611    5.501266
  12 N     7.0000    0    14.007    4.259847    1.459380    7.137757
  13 C     6.0000    0    12.011    8.577281    4.040383    8.396041
  14 C     6.0000    0    12.011    0.818384    3.866273    9.863507
  15 N     7.0000    0    14.007    2.394575    0.353274    0.002067
  16 N     7.0000    0    14.007    0.451056    3.950564    0.004279
  17 C     6.0000    0    12.011    4.383720   -1.560297    0.348489
  18 C     6.0000    0    12.011    3.780848   -3.386369    2.491392
  19 C     6.0000    0    12.011    5.943090   -5.253105    2.910616
  20 C     6.0000    0    12.011    2.663311    2.821074    0.409248
  21 C     6.0000    0    12.011   -0.077817   -0.113242   -0.655753
  22 C     6.0000    0    12.011   -1.296339    2.140600   -0.652358
  23 C     6.0000    0    12.011    5.455538   -6.983568    5.165174
  24 C     6.0000    0    12.011   -0.081029    6.621381    0.430848
  25 H     1.0000    0     1.008    6.120446   -0.530670    0.739076
  26 H     1.0000    0     1.008    4.608815   -2.553650   -1.446142
  27 H     1.0000    0     1.008    3.436229   -2.312861    4.216062
  28 H     1.0000    0     1.008    2.036775   -4.416371    2.067603
  29 H     1.0000    0     1.008    7.685530   -4.195787    3.238282
  30 H     1.0000    0     1.008    6.229673   -6.384325    1.199298
  31 H     1.0000    0     1.008    4.368510    3.708081    1.085081
  32 H     1.0000    0     1.008   -0.758493   -1.984945   -1.046246
  33 H     1.0000    0     1.008   -3.238184    2.601068   -1.026804
  34 H     1.0000    0     1.008    3.719584   -8.076240    4.916090
  35 H     1.0000    0     1.008    7.008253   -8.315364    5.426331
  36 H     1.0000    0     1.008    5.273753   -5.877904    6.896688
  37 H     1.0000    0     1.008   -1.329508    6.811999    2.052353
  38 H     1.0000    0     1.008   -0.948271    7.422040   -1.254971
  39 H     1.0000    0     1.008    1.677648    7.586413    0.854401

--------------------------------
INTERNAL COORDINATES (ANGSTROEM)
--------------------------------
 S      0   0   0     0.000000000000     0.00000000     0.00000000
 S      1   0   0     2.832309538982     0.00000000     0.00000000
 F      1   2   0     2.628921978126   127.37605037     0.00000000
 F      3   1   2     2.170171660353    66.30483561   354.74135955
 F      4   3   1     2.169683557448    60.05346789    74.96953181
 F      2   1   3     2.643963052078    92.32285944   322.28252151
 F      6   2   1     2.171419207047    65.04447028   180.64624693
 F      6   2   1     2.169895335178    65.98750947   247.28866077
 O      1   2   3     1.449466107744    91.36522984   268.16062371
 O      1   2   3     1.435040745475   133.48772401   136.11692950
 O      2   1   3     1.444049113397   122.76547001   175.72655342
 O      2   1   3     1.445348383999    90.88079808    52.22480973
 N      1   2   3     1.576993319476    26.10274634   115.16973214
 C      4   3   1     1.333702881120    35.66347432    38.77725558
 C      8   6   2     1.332068212928    35.52588563   322.45120684
 N     11   2   1     3.265475756090   100.54505040   318.84826813
 N     16  11   2     2.163665883964    66.68634516   272.41772128
 C     16  11   2     1.472069825024   109.80392913    72.22723609
 C     18  16  11     1.523628585895   112.28619671    33.45686743
 C     19  18  16     1.527824017044   111.18123884   183.32772827
 C     16  11   2     1.331177813356    71.06284860   310.47473033
 C     16  11   2     1.376174836376    82.97076896   198.04382163
 C     22  16  11     1.355831344624   107.09776755    67.66148557
 C     20  19  18     1.525944147824   112.01849958   176.10736300
 C     17  16  11     1.458681847590   160.78518358    77.80321532
 H     18  16  11     1.088216163077   106.44681784   272.20623118
 H     18  16  11     1.091968216708   107.50786387   156.32459774
 H     19  18  16     1.090370880156   109.12022367   304.72118401
 H     19  18  16     1.095063336078   109.86030469    61.54889592
 H     20  19  18     1.092386547181   108.90667975    55.43109758
 H     20  19  18     1.096099121028   109.67968401   298.51838973
 H     21  16  11     1.078176239605   124.76303434    99.83827979
 H     22  16  11     1.073992020254   122.20528127   248.32246610
 H     23  22  16     1.074503895453   130.84826087   181.19243988
 H     24  20  19     1.093428410887   111.41605952    59.21888452
 H     24  20  19     1.091286916889   111.05452642   179.45496948
 H     24  20  19     1.091398600923   110.46227415   299.05262359
 H     25  17  16     1.087625127665   109.22028931   258.88693075
 H     25  17  16     1.089018572233   109.36226821   137.54644460
 H     25  17  16     1.084959292899   108.81085558    16.95498366

---------------------------
INTERNAL COORDINATES (A.U.)
---------------------------
 S      0   0   0     0.000000000000     0.00000000     0.00000000
 S      1   0   0     5.352289355169     0.00000000     0.00000000
 F      1   2   0     4.967942566105   127.37605037     0.00000000
 F      3   1   2     4.101030101664    66.30483561   354.74135955
 F      4   3   1     4.100107720849    60.05346789    74.96953181
 F      2   1   3     4.996366076634    92.32285944   322.28252151
 F      6   2   1     4.103387623255    65.04447028   180.64624693
 F      6   2   1     4.100507922759    65.98750947   247.28866077
 O      1   2   3     2.739093984036    91.36522984   268.16062371
 O      1   2   3     2.711833999966   133.48772401   136.11692950
 O      2   1   3     2.728857348253   122.76547001   175.72655342
 O      2   1   3     2.731312613864    90.88079808    52.22480973
 N      1   2   3     2.980085488833    26.10274634   115.16973214
 C      4   3   1     2.520333189338    35.66347432    38.77725558
 C      8   6   2     2.517244114136    35.52588563   322.45120684
 N     11   2   1     6.170854875969   100.54505040   318.84826813
 N     16  11   2     4.088735966001    66.68634516   272.41772128
 C     16  11   2     2.781808819305   109.80392913    72.22723609
 C     18  16  11     2.879240757155   112.28619671    33.45686743
 C     19  18  16     2.887168973042   111.18123884   183.32772827
 C     16  11   2     2.515561502795    71.06284860   310.47473033
 C     16  11   2     2.600593553144    82.97076896   198.04382163
 C     22  16  11     2.562149925125   107.09776755    67.66148557
 C     20  19  18     2.883616535048   112.01849958   176.10736300
 C     17  16  11     2.756509208468   160.78518358    77.80321532
 H     18  16  11     2.056430522722   106.44681784   272.20623118
 H     18  16  11     2.063520876525   107.50786387   156.32459774
 H     19  18  16     2.060502347898   109.12022367   304.72118401
 H     19  18  16     2.069369804486   109.86030469    61.54889592
 H     20  19  18     2.064311406551   108.90667975    55.43109758
 H     20  19  18     2.071327154375   109.67968401   298.51838973
 H     21  16  11     2.037457816955   124.76303434    99.83827979
 H     22  16  11     2.029550788296   122.20528127   248.32246610
 H     23  22  16     2.030518092238   130.84826087   181.19243988
 H     24  20  19     2.066280243625   111.41605952    59.21888452
 H     24  20  19     2.062233406452   111.05452642   179.45496948
 H     24  20  19     2.062444458689   110.46227415   299.05262359
 H     25  17  16     2.055313627657   109.22028931   258.88693075
 H     25  17  16     2.057946856274   109.36226821   137.54644460
 H     25  17  16     2.050275930033   108.81085558    16.95498366

---------------------
BASIS SET INFORMATION
---------------------
There are 6 groups of distinct atoms

 Group   1 Type S   : 14s9p3d1f contracted to 5s5p2d1f pattern {73211/51111/21/1}
 Group   2 Type F   : 11s6p2d1f contracted to 5s3p2d1f pattern {62111/411/11/1}
 Group   3 Type O   : 11s6p2d1f contracted to 5s3p2d1f pattern {62111/411/11/1}
 Group   4 Type N   : 11s6p2d1f contracted to 5s3p2d1f pattern {62111/411/11/1}
 Group   5 Type C   : 11s6p2d1f contracted to 5s3p2d1f pattern {62111/411/11/1}
 Group   6 Type H   : 5s1p contracted to 3s1p pattern {311/1}

Atom   0S    basis set group =>   1
Atom   1S    basis set group =>   1
Atom   2F    basis set group =>   2
Atom   3F    basis set group =>   2
Atom   4F    basis set group =>   2
Atom   5F    basis set group =>   2
Atom   6F    basis set group =>   2
Atom   7F    basis set group =>   2
Atom   8O    basis set group =>   3
Atom   9O    basis set group =>   3
Atom  10O    basis set group =>   3
Atom  11O    basis set group =>   3
Atom  12N    basis set group =>   4
Atom  13C    basis set group =>   5
Atom  14C    basis set group =>   5
Atom  15N    basis set group =>   4
Atom  16N    basis set group =>   4
Atom  17C    basis set group =>   5
Atom  18C    basis set group =>   5
Atom  19C    basis set group =>   5
Atom  20C    basis set group =>   5
Atom  21C    basis set group =>   5
Atom  22C    basis set group =>   5
Atom  23C    basis set group =>   5
Atom  24C    basis set group =>   5
Atom  25H    basis set group =>   6
Atom  26H    basis set group =>   6
Atom  27H    basis set group =>   6
Atom  28H    basis set group =>   6
Atom  29H    basis set group =>   6
Atom  30H    basis set group =>   6
Atom  31H    basis set group =>   6
Atom  32H    basis set group =>   6
Atom  33H    basis set group =>   6
Atom  34H    basis set group =>   6
Atom  35H    basis set group =>   6
Atom  36H    basis set group =>   6
Atom  37H    basis set group =>   6
Atom  38H    basis set group =>   6
Atom  39H    basis set group =>   6
---------------------------------
AUXILIARY/J BASIS SET INFORMATION
---------------------------------
There are 6 groups of distinct atoms

 Group   1 Type S   : 14s5p5d2f1g contracted to 8s4p3d1f1g pattern {71111111/2111/311/2/1}
 Group   2 Type F   : 12s5p4d2f1g contracted to 6s4p3d1f1g pattern {711111/2111/211/2/1}
 Group   3 Type O   : 12s5p4d2f1g contracted to 6s4p3d1f1g pattern {711111/2111/211/2/1}
 Group   4 Type N   : 12s5p4d2f1g contracted to 6s4p3d1f1g pattern {711111/2111/211/2/1}
 Group   5 Type C   : 12s5p4d2f1g contracted to 6s4p3d1f1g pattern {711111/2111/211/2/1}
 Group   6 Type H   : 5s2p1d contracted to 3s1p1d pattern {311/2/1}

Atom   0S    basis set group =>   1
Atom   1S    basis set group =>   1
Atom   2F    basis set group =>   2
Atom   3F    basis set group =>   2
Atom   4F    basis set group =>   2
Atom   5F    basis set group =>   2
Atom   6F    basis set group =>   2
Atom   7F    basis set group =>   2
Atom   8O    basis set group =>   3
Atom   9O    basis set group =>   3
Atom  10O    basis set group =>   3
Atom  11O    basis set group =>   3
Atom  12N    basis set group =>   4
Atom  13C    basis set group =>   5
Atom  14C    basis set group =>   5
Atom  15N    basis set group =>   4
Atom  16N    basis set group =>   4
Atom  17C    basis set group =>   5
Atom  18C    basis set group =>   5
Atom  19C    basis set group =>   5
Atom  20C    basis set group =>   5
Atom  21C    basis set group =>   5
Atom  22C    basis set group =>   5
Atom  23C    basis set group =>   5
Atom  24C    basis set group =>   5
Atom  25H    basis set group =>   6
Atom  26H    basis set group =>   6
Atom  27H    basis set group =>   6
Atom  28H    basis set group =>   6
Atom  29H    basis set group =>   6
Atom  30H    basis set group =>   6
Atom  31H    basis set group =>   6
Atom  32H    basis set group =>   6
Atom  33H    basis set group =>   6
Atom  34H    basis set group =>   6
Atom  35H    basis set group =>   6
Atom  36H    basis set group =>   6
Atom  37H    basis set group =>   6
Atom  38H    basis set group =>   6
Atom  39H    basis set group =>   6


           ************************************************************
           *        Program running with 30 parallel MPI-processes    *
           *              working on a common directory               *
           ************************************************************
------------------------------------------------------------------------------
                             ORCA STARTUP CALCULATIONS
                           -- RI-GTO INTEGRALS CHOSEN --
------------------------------------------------------------------------------
------------------------------------------------------------------------------
                   ___                                                        
                  /   \      - P O W E R E D   B Y -                         
                 /     \                                                     
                 |  |  |   _    _      __       _____    __    __             
                 |  |  |  | |  | |    /  \     |  _  \  |  |  /  |          
                  \  \/   | |  | |   /    \    | | | |  |  | /  /          
                 / \  \   | |__| |  /  /\  \   | |_| |  |  |/  /          
                |  |  |   |  __  | /  /__\  \  |    /   |      \           
                |  |  |   | |  | | |   __   |  |    \   |  |\   \          
                \     /   | |  | | |  |  |  |  | |\  \  |  | \   \       
                 \___/    |_|  |_| |__|  |__|  |_| \__\ |__|  \__/        
                                                                              
                      - O R C A' S   B I G   F R I E N D -                    
                                      &                                       
                       - I N T E G R A L  F E E D E R -                       
                                                                              
 v1 FN, 2020, v2 2021, v3 2022-2024                                           
------------------------------------------------------------------------------


----------------------
SHARK INTEGRAL PACKAGE
----------------------

Number of atoms                             ...     40
Number of basis functions                   ...    877
Number of shells                            ...    339
Maximum angular momentum                    ...      3
Integral batch strategy                     ... SHARK/LIBINT Hybrid
RI-J (if used) integral strategy            ... SPLIT-RIJ (Revised 2003 algorithm where possible)
Printlevel                                  ...      1
Contraction scheme used                     ... SEGMENTED contraction
Prescreening option                         ... SCHWARTZ
   Thresh                                   ... 2.500e-11
   Tcut                                     ... 2.500e-12
   Tpresel                                  ... 2.500e-12 
Coulomb Range Separation                    ... NOT USED
Exchange Range Separation                   ... NOT USED
Multipole approximations                    ... NOT USED
Finite Nucleus Model                        ... NOT USED
CABS basis                                  ... NOT available
Auxiliary Coulomb fitting basis             ... AVAILABLE
   # of basis functions in Aux-J            ...   1394
   # of shells in Aux-J                     ...    454
   Maximum angular momentum in Aux-J        ...      4
Auxiliary J/K fitting basis                 ... NOT available
Auxiliary Correlation fitting basis         ... NOT available
Auxiliary 'external' fitting basis          ... NOT available

Checking pre-screening integrals            ... done (  0.0 sec) Dimension = 339
Check shell pair data                       ... done (  0.0 sec)
Shell pair information
Shell pair cut-off parameter TPreSel        ...   2.5e-12
Total number of shell pairs                 ...     57630
Shell pairs after pre-screening             ...     38040
Total number of primitive shell pairs       ...    183333
Primitive shell pairs kept                  ...     76902
          la=0 lb=0:   9257 shell pairs
          la=1 lb=0:  11121 shell pairs
          la=1 lb=1:   3401 shell pairs
          la=2 lb=0:   5272 shell pairs
          la=2 lb=1:   3290 shell pairs
          la=2 lb=2:    805 shell pairs
          la=3 lb=0:   2426 shell pairs
          la=3 lb=1:   1558 shell pairs
          la=3 lb=2:    734 shell pairs
          la=3 lb=3:    176 shell pairs

Calculating one electron integrals          ... done (  0.1 sec)
Calculating RI/J V-Matrix + Cholesky decomp.... done (  0.1 sec)
Calculating Nuclear repulsion               ... done (  0.0 sec) ENN=   3242.693458968096 Eh

Diagonalization of the overlap matrix:
Smallest eigenvalue                        ... 7.428e-05
Time for diagonalization                   ...    0.115 sec
Threshold for overlap eigenvalues          ... 1.000e-07
Number of eigenvalues below threshold      ... 0
Time for construction of square roots      ...    0.053 sec
Total time needed                          ...    0.176 sec

-------------------
DFT GRID GENERATION
-------------------

General Integration Accuracy     IntAcc      ... 4.388
Radial Grid Type                 RadialGrid  ... OptM3 with GC (2021)
Angular Grid (max. ang.)         AngularGrid ... 4 (Lebedev-302)
Angular grid pruning method      GridPruning ... 4 (adaptive)
Weight generation scheme         WeightScheme... mBecke (2022)
Basis function cutoff            BFCut       ... 1.0000e-11
Integration weight cutoff        WCut        ... 1.0000e-14
Partially contracted basis set               ... off
Rotationally invariant grid construction     ... off
Angular grids for H and He will be reduced by one unit

Total number of grid points                  ...   200315
Total number of batches                      ...     3150
Average number of points per batch           ...       63
Average number of grid points per atom       ...     5008

--------------------
COSX GRID GENERATION
--------------------

GRIDX 1
-------
General Integration Accuracy     IntAcc      ... 3.816
Radial Grid Type                 RadialGrid  ... OptM3 with GC (2021)
Angular Grid (max. ang.)         AngularGrid ... 1 (Lebedev-50)
Angular grid pruning method      GridPruning ... 4 (adaptive)
Weight generation scheme         WeightScheme... mBecke (2022)
Basis function cutoff            BFCut       ... 1.0000e-11
Integration weight cutoff        WCut        ... 1.0000e-14
Partially contracted basis set               ... on
Rotationally invariant grid construction     ... off
Angular grids for H and He will be reduced by one unit

Total number of grid points                  ...    27370
Total number of batches                      ...      236
Average number of points per batch           ...      115
Average number of grid points per atom       ...      684
UseSFitting                                  ... on

GRIDX 2
-------
General Integration Accuracy     IntAcc      ... 4.020
Radial Grid Type                 RadialGrid  ... OptM3 with GC (2021)
Angular Grid (max. ang.)         AngularGrid ... 2 (Lebedev-110)
Angular grid pruning method      GridPruning ... 4 (adaptive)
Weight generation scheme         WeightScheme... mBecke (2022)
Basis function cutoff            BFCut       ... 1.0000e-11
Integration weight cutoff        WCut        ... 1.0000e-14
Partially contracted basis set               ... on
Rotationally invariant grid construction     ... off
Angular grids for H and He will be reduced by one unit

Total number of grid points                  ...    55593
Total number of batches                      ...      457
Average number of points per batch           ...      121
Average number of grid points per atom       ...     1390
UseSFitting                                  ... on

GRIDX 3
-------
General Integration Accuracy     IntAcc      ... 4.338
Radial Grid Type                 RadialGrid  ... OptM3 with GC (2021)
Angular Grid (max. ang.)         AngularGrid ... 3 (Lebedev-194)
Angular grid pruning method      GridPruning ... 4 (adaptive)
Weight generation scheme         WeightScheme... mBecke (2022)
Basis function cutoff            BFCut       ... 1.0000e-11
Integration weight cutoff        WCut        ... 1.0000e-14
Partially contracted basis set               ... on
Rotationally invariant grid construction     ... off
Angular grids for H and He will be reduced by one unit

Total number of grid points                  ...   122679
Total number of batches                      ...      980
Average number of points per batch           ...      125
Average number of grid points per atom       ...     3067
UseSFitting                                  ... on
Initializing property integral containers    ... done (  0.0 sec)

SHARK setup successfully completed in   2.6 seconds

Maximum memory used throughout the entire STARTUP-calculation: 85.6 MB


           ************************************************************
           *        Program running with 30 parallel MPI-processes    *
           *              working on a common directory               *
           ************************************************************
-------------------------------------------------------------------------------
                                 ORCA GUESS
                   Start orbitals & Density for SCF / CASSCF
-------------------------------------------------------------------------------

------------
SCF SETTINGS
------------
Hamiltonian:
 Density Functional     Method          .... DFT(GTOs)
 Exchange Functional    Exchange        .... B88
   X-Alpha parameter    XAlpha          ....  0.666667
   Becke's b parameter  XBeta           ....  0.004200
 Correlation Functional Correlation     .... LYP
 LDA part of GGA corr.  LDAOpt          .... VWN-5
 Gradients option       PostSCFGGA      .... off
 Hybrid DFT is turned on
   Fraction HF Exchange ScalHFX         ....  0.200000
   Scaling of DF-GGA-X  ScalDFX         ....  0.720000
   Scaling of DF-GGA-C  ScalDFC         ....  0.810000
   Scaling of DF-LDA-C  ScalLDAC        ....  1.000000
   Perturbative correction              ....  0.000000
   NL short-range parameter             ....  4.800000
 RI-approximation to the Coulomb term is turned on
   Number of AuxJ basis functions       .... 1394
   RIJ-COSX (HFX calculated with COS-X)).... on


General Settings:
 Integral files         IntName         .... input
 Hartree-Fock type      HFTyp           .... RHF
 Total Charge           Charge          ....    0
 Multiplicity           Mult            ....    1
 Number of Electrons    NEL             ....  214
 Basis Dimension        Dim             ....  877
 Nuclear Repulsion      ENuc            ....   3242.6934589681 Eh

Convergence Acceleration:
 AO-DIIS                CNVDIIS         .... on
   Start iteration      DIISMaxIt       ....    12
   Startup error        DIISStart       ....  0.200000
   # of expansion vecs  DIISMaxEq       ....     5
   Bias factor          DIISBfac        ....   1.050
   Max. coefficient     DIISMaxC        ....  10.000
 MO-DIIS                CNVKDIIS        .... off
 Trust-Rad. Augm. Hess. CNVTRAH         .... auto
   Auto Start mean grad. ratio tolernc. ....  1.125000
   Auto Start start iteration           ....    50
   Auto Start num. interpolation iter.  ....    10
   Max. Number of Micro iterations      ....    24
   Max. Number of Macro iterations      .... Maxiter - #DIIS iter
   Number of Davidson start vectors     ....     2
   Converg. threshold    (grad. norm)   ....   1.000e-05
   Grad. Scal. Fac. for Micro threshold ....   0.100
   Minimum threshold for Micro iter.    ....   1.000e-02
   NR start threshold (gradient norm)   ....   1.000e-04
   Initial trust radius                 ....   0.400
   Minimum AH scaling param. (alpha)    ....   1.000
   Maximum AH scaling param. (alpha)    .... 1000.000
   Quad. conv. algorithm                .... NR
   White noise on init. David. guess    .... on
   Maximum white noise                  ....   0.010
   Pseudo random numbers                .... off
   Inactive MOs                         .... canonical
   Orbital update algorithm             .... Taylor
   Preconditioner                       .... Diag
   Full preconditioner red. dimension   ....   250
 SOSCF                  CNVSOSCF        .... on
   Start iteration      SOSCFMaxIt      ....   150
   Startup grad/error   SOSCFStart      ....  0.003300
   Hessian update       SOSCFHessUp     .... L-BFGS
 Level Shifting         CNVShift        .... on
   Level shift para.    LevelShift      ....    0.2500
   Turn off err/grad.   ShiftErr        ....    0.0010
 Zerner damping         CNVZerner       .... off
 Static damping         CNVDamp         .... on
   Fraction old density DampFac         ....    0.7000
   Max. Damping (<1)    DampMax         ....    0.9800
   Min. Damping (>=0)   DampMin         ....    0.0000
   Turn off err/grad.   DampErr         ....    0.1000

SCF Procedure:
 Maximum # iterations   MaxIter         ....   125
 SCF integral mode      SCFMode         .... Direct
   Integral package                     .... SHARK and LIBINT hybrid scheme
 Reset frequency        DirectResetFreq ....    20
 Integral Threshold     Thresh          ....  2.500e-11 Eh
 Primitive CutOff       TCut            ....  2.500e-12 Eh

Convergence Tolerance:
 Convergence Check Mode ConvCheckMode   .... Total+1el-Energy
 Convergence forced     ConvForced      .... 0
 Energy Change          TolE            ....  1.000e-08 Eh
 1-El. energy change                    ....  1.000e-05 Eh
 Orbital Gradient       TolG            ....  1.000e-05
 Orbital Rotation angle TolX            ....  1.000e-05
 DIIS Error             TolErr          ....  5.000e-07

------------------------------
INITIAL GUESS: MODEL POTENTIAL
------------------------------
Loading Hartree-Fock densities                     ... done
Calculating cut-offs                               ... done
Initializing the effective Hamiltonian             ... done
Setting up the integral package (SHARK)            ... done
Starting the Coulomb interaction                   ... done (   0.1 sec)
Making the grid                                    ... done (   0.2 sec)
Mapping shells                                     ... done
Starting the XC term evaluation                    ... done (   0.1 sec)
  promolecular density results
     # of electrons  =    214.002405450
     EX              =   -219.140640715
     EC              =     -7.870100074
     EX+EC           =   -227.010740789
Transforming the Hamiltonian                       ... done (   0.0 sec)
Diagonalizing the Hamiltonian                      ... done (   0.1 sec)
Back transforming the eigenvectors                 ... done (   0.0 sec)
Now organizing SCF variables                       ... done
                      ------------------
                      INITIAL GUESS DONE (   0.7 sec)
                      ------------------
             **** ENERGY FILE WAS UPDATED (input.en.tmp) ****
Finished Guess after   1.6 sec
Maximum memory used throughout the entire GUESS-calculation: 71.4 MB


           ************************************************************
           *        Program running with 30 parallel MPI-processes    *
           *              working on a common directory               *
           ************************************************************

-------------------------------------------------------------------------------------------
                                      ORCA LEAN-SCF
                              memory conserving SCF solver
-------------------------------------------------------------------------------------------

----------------------------------------D-I-I-S--------------------------------------------
Iteration    Energy (Eh)           Delta-E    RMSDP     MaxDP     DIISErr   Damp  Time(sec)
-------------------------------------------------------------------------------------------
               ***  Starting incremental Fock matrix formation  ***
    1    -2249.5094948139935696     0.00e+00  1.02e-03  1.21e-01  3.25e-01  0.700   3.6
    2    -2250.0002569305929683    -4.91e-01  6.08e-04  3.98e-02  1.26e-01  0.700   2.5
                               ***Turning on AO-DIIS***
    3    -2250.1493789783758075    -1.49e-01  2.52e-04  1.46e-02  4.00e-02  0.700   2.2
    4    -2250.2540420951031592    -1.05e-01  4.11e-04  3.37e-02  1.53e-02  0.000   2.1
    5    -2250.4979180559953420    -2.44e-01  1.23e-04  9.86e-03  8.45e-03  0.000   2.1
    6    -2250.4990632891508540    -1.15e-03  4.55e-05  2.94e-03  5.12e-03  0.000   2.0
    7    -2250.4991468603516296    -8.36e-05  1.65e-05  1.27e-03  3.57e-03  0.000   1.8
                              *** Initializing SOSCF ***
---------------------------------------S-O-S-C-F--------------------------------------
Iteration    Energy (Eh)           Delta-E    RMSDP     MaxDP     MaxGrad    Time(sec)
--------------------------------------------------------------------------------------
    8    -2250.4991807689598318    -3.39e-05  6.84e-06  4.03e-04  3.32e-04     2.0
               *** Restarting incremental Fock matrix formation ***
    9    -2250.4991860778077353    -5.31e-06  6.92e-06  3.40e-04  6.52e-05     3.5
   10    -2250.4991849455705051     1.13e-06  2.75e-06  2.00e-04  1.30e-04     2.2
   11    -2250.4991868394058656    -1.89e-06  1.24e-06  5.75e-05  1.76e-05     2.0
   12    -2250.4991867831345189     5.63e-08  6.19e-07  4.15e-05  3.73e-05     1.8
   13    -2250.4991868839911149    -1.01e-07  1.65e-07  1.12e-05  3.36e-06     1.6
   14    -2250.4991868381862332     4.58e-08  1.01e-07  7.10e-06  5.30e-06     1.4
   15    -2250.4991868744623389    -3.63e-08  1.09e-07  1.13e-05  3.98e-07     1.4
                  *** Gradient check signals convergence ***

               *****************************************************
               *                     SUCCESS                       *
               *           SCF CONVERGED AFTER  15 CYCLES          *
               *****************************************************

Recomputing exchange energy using gridx3       ... done (    5.875 sec)
Old exchange energy                            :    -44.142481567 Eh
New exchange energy                            :    -44.142508787 Eh
Exchange energy change after final integration :     -0.000027220 Eh
Total energy after final integration           :  -2250.499214094 Eh
             **** ENERGY FILE WAS UPDATED (input.en.tmp) ****

----------------
TOTAL SCF ENERGY
----------------

Total Energy       :      -2250.49921409404124 Eh          -61239.19696 eV

Components:
Nuclear Repulsion  :       3242.69345896809637 Eh           88238.17496 eV
Electronic Energy  :      -5493.19264584255870 Eh         -149477.37118 eV
One Electron Energy:      -9561.94002277700565 Eh         -260193.61601 eV
Two Electron Energy:       4068.74737693444695 Eh          110716.24483 eV

Virial components:
Potential Energy   :      -4494.29455247260375 Eh         -122295.97218 eV
Kinetic Energy     :       2243.79533837856297 Eh           61056.77522 eV
Virial Ratio       :          2.00298773938996

DFT components:
N(Alpha)           :      106.999954399809 electrons
N(Beta)            :      106.999954399809 electrons
N(Total)           :      213.999908799618 electrons
E(X)               :     -175.632677881533 Eh       
E(C)               :       -9.218565469929 Eh       
E(XC)              :     -184.851243351463 Eh       

---------------
SCF CONVERGENCE
---------------

  Last Energy change         ...    3.6276e-08  Tolerance :   1.0000e-08
  Last MAX-Density change    ...    1.1306e-05  Tolerance :   1.0000e-07
  Last RMS-Density change    ...    1.0916e-07  Tolerance :   5.0000e-09
  Last DIIS Error            ...    3.3192e-04  Tolerance :   5.0000e-07
  Last Orbital Gradient      ...    3.9764e-07  Tolerance :   1.0000e-05
  Last Orbital Rotation      ...    9.4937e-07  Tolerance :   1.0000e-05


----------------
ORBITAL ENERGIES
----------------

  NO   OCC          E(Eh)            E(eV) 
   0   2.0000     -89.054576     -2423.2982 
   1   2.0000     -89.052505     -2423.2419 
   2   2.0000     -24.718820      -672.6333 
   3   2.0000     -24.718215      -672.6168 
   4   2.0000     -24.717692      -672.6026 
   5   2.0000     -24.713791      -672.4964 
   6   2.0000     -24.713706      -672.4941 
   7   2.0000     -24.713454      -672.4873 
   8   2.0000     -19.118977      -520.2538 
   9   2.0000     -19.118898      -520.2517 
  10   2.0000     -19.117348      -520.2095 
  11   2.0000     -19.111405      -520.0478 
  12   2.0000     -14.439472      -392.9180 
  13   2.0000     -14.436032      -392.8244 
  14   2.0000     -14.310922      -389.4200 
  15   2.0000     -10.429194      -283.7928 
  16   2.0000     -10.424907      -283.6762 
  17   2.0000     -10.294122      -280.1173 
  18   2.0000     -10.258990      -279.1613 
  19   2.0000     -10.257898      -279.1316 
  20   2.0000     -10.248546      -278.8771 
  21   2.0000     -10.243303      -278.7345 
  22   2.0000     -10.180412      -277.0231 
  23   2.0000     -10.167690      -276.6769 
  24   2.0000     -10.152323      -276.2588 
  25   2.0000      -8.099809      -220.4070 
  26   2.0000      -8.097367      -220.3406 
  27   2.0000      -6.063030      -164.9834 
  28   2.0000      -6.062745      -164.9757 
  29   2.0000      -6.061268      -164.9355 
  30   2.0000      -6.061008      -164.9284 
  31   2.0000      -6.060182      -164.9059 
  32   2.0000      -6.058641      -164.8640 
  33   2.0000      -1.322174       -35.9782 
  34   2.0000      -1.317724       -35.8571 
  35   2.0000      -1.234376       -33.5891 
  36   2.0000      -1.233870       -33.5753 
  37   2.0000      -1.229763       -33.4635 
  38   2.0000      -1.229422       -33.4543 
  39   2.0000      -1.127542       -30.6820 
  40   2.0000      -1.110702       -30.2237 
  41   2.0000      -1.107467       -30.1357 
  42   2.0000      -1.007771       -27.4228 
  43   2.0000      -1.004747       -27.3405 
  44   2.0000      -0.990144       -26.9432 
  45   2.0000      -0.913141       -24.8478 
  46   2.0000      -0.842289       -22.9199 
  47   2.0000      -0.816375       -22.2147 
  48   2.0000      -0.782955       -21.3053 
  49   2.0000      -0.753648       -20.5078 
  50   2.0000      -0.741627       -20.1807 
  51   2.0000      -0.726999       -19.7827 
  52   2.0000      -0.688099       -18.7241 
  53   2.0000      -0.682366       -18.5681 
  54   2.0000      -0.661887       -18.0109 
  55   2.0000      -0.645169       -17.5559 
  56   2.0000      -0.633415       -17.2361 
  57   2.0000      -0.606235       -16.4965 
  58   2.0000      -0.600175       -16.3316 
  59   2.0000      -0.597753       -16.2657 
  60   2.0000      -0.595558       -16.2059 
  61   2.0000      -0.593331       -16.1453 
  62   2.0000      -0.591349       -16.0914 
  63   2.0000      -0.588129       -16.0038 
  64   2.0000      -0.537535       -14.6271 
  65   2.0000      -0.528920       -14.3926 
  66   2.0000      -0.520008       -14.1501 
  67   2.0000      -0.511480       -13.9181 
  68   2.0000      -0.502321       -13.6689 
  69   2.0000      -0.501167       -13.6374 
  70   2.0000      -0.491311       -13.3693 
  71   2.0000      -0.482775       -13.1370 
  72   2.0000      -0.480525       -13.0758 
  73   2.0000      -0.475643       -12.9429 
  74   2.0000      -0.473901       -12.8955 
  75   2.0000      -0.473223       -12.8771 
  76   2.0000      -0.470410       -12.8005 
  77   2.0000      -0.464105       -12.6289 
  78   2.0000      -0.460459       -12.5297 
  79   2.0000      -0.450199       -12.2505 
  80   2.0000      -0.446553       -12.1513 
  81   2.0000      -0.443658       -12.0725 
  82   2.0000      -0.442122       -12.0308 
  83   2.0000      -0.438768       -11.9395 
  84   2.0000      -0.434987       -11.8366 
  85   2.0000      -0.433857       -11.8059 
  86   2.0000      -0.431916       -11.7530 
  87   2.0000      -0.429339       -11.6829 
  88   2.0000      -0.417581       -11.3630 
  89   2.0000      -0.412684       -11.2297 
  90   2.0000      -0.399270       -10.8647 
  91   2.0000      -0.395354       -10.7581 
  92   2.0000      -0.376027       -10.2322 
  93   2.0000      -0.364375        -9.9151 
  94   2.0000      -0.357321        -9.7232 
  95   2.0000      -0.351640        -9.5686 
  96   2.0000      -0.343335        -9.3426 
  97   2.0000      -0.336504        -9.1567 
  98   2.0000      -0.333140        -9.0652 
  99   2.0000      -0.329440        -8.9645 
 100   2.0000      -0.325788        -8.8651 
 101   2.0000      -0.320479        -8.7207 
 102   2.0000      -0.316205        -8.6044 
 103   2.0000      -0.305769        -8.3204 
 104   2.0000      -0.300192        -8.1686 
 105   2.0000      -0.285411        -7.7664 
 106   2.0000      -0.274294        -7.4639 
 107   0.0000      -0.049319        -1.3420 
 108   0.0000      -0.029168        -0.7937 
 109   0.0000       0.017781         0.4839 
 110   0.0000       0.023170         0.6305 
 111   0.0000       0.038593         1.0502 
 112   0.0000       0.044820         1.2196 
 113   0.0000       0.046943         1.2774 
 114   0.0000       0.052002         1.4151 
 115   0.0000       0.060209         1.6384 
 116   0.0000       0.062475         1.7000 
 117   0.0000       0.065030         1.7696 
*Only the first 10 virtual orbitals were printed.

                    ********************************
                    * MULLIKEN POPULATION ANALYSIS *
                    ********************************

-----------------------
MULLIKEN ATOMIC CHARGES
-----------------------
   0 S :    0.816537
   1 S :    0.809153
   2 F :   -0.159311
   3 F :   -0.157959
   4 F :   -0.158363
   5 F :   -0.156473
   6 F :   -0.165517
   7 F :   -0.153564
   8 O :   -0.521853
   9 O :   -0.462442
  10 O :   -0.496007
  11 O :   -0.492437
  12 N :   -0.451018
  13 C :    0.449672
  14 C :    0.446870
  15 N :    0.036451
  16 N :   -0.010606
  17 C :   -0.197648
  18 C :   -0.223374
  19 C :   -0.128412
  20 C :   -0.024689
  21 C :   -0.063435
  22 C :   -0.062006
  23 C :   -0.344545
  24 C :   -0.266237
  25 H :    0.172115
  26 H :    0.125520
  27 H :    0.168615
  28 H :    0.077627
  29 H :    0.121769
  30 H :    0.071457
  31 H :    0.262117
  32 H :    0.166022
  33 H :    0.163636
  34 H :    0.090287
  35 H :    0.109502
  36 H :    0.135209
  37 H :    0.167204
  38 H :    0.141525
  39 H :    0.164609
Sum of atomic charges:    0.0000000

--------------------------------
MULLIKEN REDUCED ORBITAL CHARGES
--------------------------------
  0 S s       :     5.377865  s :     5.377865
      pz      :     2.855959  p :     8.569551
      px      :     2.886244
      py      :     2.827349
      dz2     :     0.190875  d :     1.132890
      dxz     :     0.222905
      dyz     :     0.274405
      dx2y2   :     0.231494
      dxy     :     0.213211
      f0      :     0.016744  f :     0.103157
      f+1     :     0.016940
      f-1     :     0.008579
      f+2     :     0.013423
      f-2     :     0.018830
      f+3     :     0.008224
      f-3     :     0.020418

  1 S s       :     5.380559  s :     5.380559
      pz      :     2.931197  p :     8.575257
      px      :     2.865635
      py      :     2.778425
      dz2     :     0.254420  d :     1.132057
      dxz     :     0.186793
      dyz     :     0.187624
      dx2y2   :     0.235715
      dxy     :     0.267505
      f0      :     0.006887  f :     0.102975
      f+1     :     0.011479
      f-1     :     0.014559
      f+2     :     0.013357
      f-2     :     0.013659
      f+3     :     0.026298
      f-3     :     0.016735

  2 F s       :     3.910183  s :     3.910183
      pz      :     1.870905  p :     5.231638
      px      :     1.473151
      py      :     1.887583
      dz2     :     0.002295  d :     0.016729
      dxz     :     0.004330
      dyz     :     0.000325
      dx2y2   :     0.006195
      dxy     :     0.003583
      f0      :     0.000076  f :     0.000761
      f+1     :     0.000137
      f-1     :     0.000009
      f+2     :     0.000143
      f-2     :     0.000030
      f+3     :     0.000214
      f-3     :     0.000152

  3 F s       :     3.914300  s :     3.914300
      pz      :     1.892237  p :     5.225997
      px      :     1.809641
      py      :     1.524119
      dz2     :     0.002425  d :     0.016898
      dxz     :     0.000749
      dyz     :     0.003105
      dx2y2   :     0.004996
      dxy     :     0.005623
      f0      :     0.000066  f :     0.000764
      f+1     :     0.000040
      f-1     :     0.000130
      f+2     :     0.000051
      f-2     :     0.000065
      f+3     :     0.000250
      f-3     :     0.000164

  4 F s       :     3.911724  s :     3.911724
      pz      :     1.492960  p :     5.229031
      px      :     1.892212
      py      :     1.843859
      dz2     :     0.007384  d :     0.016841
      dxz     :     0.003158
      dyz     :     0.005111
      dx2y2   :     0.000647
      dxy     :     0.000540
      f0      :     0.000261  f :     0.000768
      f+1     :     0.000125
      f-1     :     0.000261
      f+2     :     0.000061
      f-2     :     0.000050
      f+3     :     0.000004
      f-3     :     0.000005

  5 F s       :     3.914541  s :     3.914541
      pz      :     1.765532  p :     5.224310
      px      :     1.670494
      py      :     1.788284
      dz2     :     0.002542  d :     0.016854
      dxz     :     0.004457
      dyz     :     0.002760
      dx2y2   :     0.002843
      dxy     :     0.004253
      f0      :     0.000087  f :     0.000767
      f+1     :     0.000102
      f-1     :     0.000058
      f+2     :     0.000098
      f-2     :     0.000202
      f+3     :     0.000092
      f-3     :     0.000127

  6 F s       :     3.910489  s :     3.910489
      pz      :     1.892554  p :     5.237738
      px      :     1.597615
      py      :     1.747569
      dz2     :     0.002320  d :     0.016536
      dxz     :     0.002694
      dyz     :     0.001427
      dx2y2   :     0.003656
      dxy     :     0.006440
      f0      :     0.000068  f :     0.000754
      f+1     :     0.000103
      f-1     :     0.000057
      f+2     :     0.000021
      f-2     :     0.000102
      f+3     :     0.000156
      f-3     :     0.000247

  7 F s       :     3.909810  s :     3.909810
      pz      :     1.779669  p :     5.226042
      px      :     1.867706
      py      :     1.578667
      dz2     :     0.002443  d :     0.016937
      dxz     :     0.001299
      dyz     :     0.005620
      dx2y2   :     0.004289
      dxy     :     0.003285
      f0      :     0.000087  f :     0.000775
      f+1     :     0.000016
      f-1     :     0.000138
      f+2     :     0.000179
      f-2     :     0.000112
      f+3     :     0.000125
[...]
      px      :     0.960309
      py      :     0.976998
      dz2     :     0.037791  d :     0.427849
      dxz     :     0.035116
      dyz     :     0.091687
      dx2y2   :     0.136194
      dxy     :     0.127062
      f0      :     0.004993  f :     0.067823
      f+1     :     0.005653
      f-1     :     0.006375
      f+2     :     0.003262
      f-2     :     0.014981
      f+3     :     0.012850
      f-3     :     0.019709

 23 C s       :     2.832629  s :     2.832629
      pz      :     1.058498  p :     3.180602
      px      :     1.065999
      py      :     1.056104
      dz2     :     0.079297  d :     0.263174
      dxz     :     0.027492
      dyz     :     0.061466
      dx2y2   :     0.017120
      dxy     :     0.077800
      f0      :     0.003557  f :     0.025512
      f+1     :     0.004148
      f-1     :     0.005162
      f+2     :     0.004539
      f-2     :     0.003034
      f+3     :     0.001321
      f-3     :     0.003751

 24 C s       :     2.837343  s :     2.837343
      pz      :     1.099554  p :     3.067317
      px      :     1.103930
      py      :     0.863832
      dz2     :     0.040087  d :     0.291913
      dxz     :     0.047566
      dyz     :     0.075037
      dx2y2   :     0.062710
      dxy     :     0.066512
      f0      :     0.003990  f :     0.038278
      f+1     :     0.003145
      f-1     :     0.006601
      f+2     :     0.006602
      f-2     :     0.002116
      f+3     :     0.006928
      f-3     :     0.008896

 25 H s       :     0.786516  s :     0.786516
      pz      :     0.014774  p :     0.062646
      px      :     0.030526
      py      :     0.017346

 26 H s       :     0.801933  s :     0.801933
      pz      :     0.029903  p :     0.059202
      px      :     0.011885
      py      :     0.017414

 27 H s       :     0.789644  s :     0.789644
      pz      :     0.030455  p :     0.063283
      px      :     0.013299
      py      :     0.019528

 28 H s       :     0.810166  s :     0.810166
      pz      :     0.013698  p :     0.058480
      px      :     0.026695
      py      :     0.018086

 29 H s       :     0.799998  s :     0.799998
      pz      :     0.013693  p :     0.060270
      px      :     0.027842
      py      :     0.018736

 30 H s       :     0.815581  s :     0.815581
      pz      :     0.025618  p :     0.057847
      px      :     0.013340
      py      :     0.018889

 31 H s       :     0.766051  s :     0.766051
      pz      :     0.020258  p :     0.075345
      px      :     0.040747
      py      :     0.014340

 32 H s       :     0.788253  s :     0.788253
      pz      :     0.015771  p :     0.063159
      px      :     0.012729
      py      :     0.034659

 33 H s       :     0.789102  s :     0.789102
      pz      :     0.015818  p :     0.063013
      px      :     0.037132
      py      :     0.010063

 34 H s       :     0.826479  s :     0.826479
      pz      :     0.013372  p :     0.060122
      px      :     0.028029
      py      :     0.018721

 35 H s       :     0.821184  s :     0.821184
      pz      :     0.013366  p :     0.060494
      px      :     0.025497
      py      :     0.021631

 36 H s       :     0.812831  s :     0.812831
      pz      :     0.028274  p :     0.061246
      px      :     0.013208
      py      :     0.019764

 37 H s       :     0.802558  s :     0.802558
      pz      :     0.031043  p :     0.063180
      px      :     0.022581
      py      :     0.009556

 38 H s       :     0.815245  s :     0.815245
      pz      :     0.029763  p :     0.061473
      px      :     0.018066
      py      :     0.013645

 39 H s       :     0.799475  s :     0.799475
      pz      :     0.014908  p :     0.063033
      px      :     0.032669
      py      :     0.015455



                      *****************************
                      * MAYER POPULATION ANALYSIS *
                      *****************************

  NA   - Mulliken gross atomic population
  ZA   - Total nuclear charge
  QA   - Mulliken gross atomic charge
  VA   - Mayer's total valence
  BVA  - Mayer's bonded valence
  FA   - Mayer's free valence

  ATOM       NA         ZA         QA         VA         BVA        FA
  0 S     15.1835    16.0000     0.8165     5.8034     5.8034    -0.0000
  1 S     15.1909    16.0000     0.8091     5.7920     5.7920    -0.0000
  2 F      9.1593     9.0000    -0.1593     1.1532     1.1532     0.0000
  3 F      9.1580     9.0000    -0.1580     1.1554     1.1554    -0.0000
  4 F      9.1584     9.0000    -0.1584     1.1529     1.1529    -0.0000
  5 F      9.1565     9.0000    -0.1565     1.1551     1.1551     0.0000
  6 F      9.1655     9.0000    -0.1655     1.1418     1.1418     0.0000
  7 F      9.1536     9.0000    -0.1536     1.1609     1.1609     0.0000
  8 O      8.5219     8.0000    -0.5219     1.9300     1.9300    -0.0000
  9 O      8.4624     8.0000    -0.4624     2.0445     2.0445     0.0000
 10 O      8.4960     8.0000    -0.4960     1.9795     1.9795     0.0000
 11 O      8.4924     8.0000    -0.4924     1.9556     1.9556    -0.0000
 12 N      7.4510     7.0000    -0.4510     2.7418     2.7418     0.0000
 13 C      5.5503     6.0000     0.4497     4.4594     4.4594    -0.0000
 14 C      5.5531     6.0000     0.4469     4.4576     4.4576    -0.0000
 15 N      6.9636     7.0000     0.0364     3.4326     3.4326     0.0000
 16 N      7.0106     7.0000    -0.0106     3.4500     3.4500     0.0000
 17 C      6.1976     6.0000    -0.1976     3.7821     3.7821    -0.0000
 18 C      6.2234     6.0000    -0.2234     3.8520     3.8520    -0.0000
 19 C      6.1284     6.0000    -0.1284     3.8122     3.8122     0.0000
 20 C      6.0247     6.0000    -0.0247     3.9052     3.9052     0.0000
 21 C      6.0634     6.0000    -0.0634     3.9241     3.9241     0.0000
 22 C      6.0620     6.0000    -0.0620     3.9218     3.9218     0.0000
 23 C      6.3446     6.0000    -0.3446     3.9100     3.9100    -0.0000
 24 C      6.2662     6.0000    -0.2662     3.8095     3.8095     0.0000
 25 H      0.8279     1.0000     0.1721     0.9844     0.9844    -0.0000
 26 H      0.8745     1.0000     0.1255     0.9621     0.9621    -0.0000
 27 H      0.8314     1.0000     0.1686     0.9783     0.9783    -0.0000
 28 H      0.9224     1.0000     0.0776     0.9748     0.9748     0.0000
 29 H      0.8782     1.0000     0.1218     0.9860     0.9860     0.0000
 30 H      0.9285     1.0000     0.0715     0.9606     0.9606     0.0000
 31 H      0.7379     1.0000     0.2621     0.9703     0.9703    -0.0000
 32 H      0.8340     1.0000     0.1660     0.9726     0.9726    -0.0000
 33 H      0.8364     1.0000     0.1636     0.9729     0.9729    -0.0000
 34 H      0.9097     1.0000     0.0903     0.9669     0.9669    -0.0000
 35 H      0.8905     1.0000     0.1095     0.9686     0.9686    -0.0000
 36 H      0.8648     1.0000     0.1352     0.9753     0.9753    -0.0000
 37 H      0.8328     1.0000     0.1672     0.9706     0.9706     0.0000
 38 H      0.8585     1.0000     0.1415     0.9498     0.9498    -0.0000
 39 H      0.8354     1.0000     0.1646     0.9728     0.9728     0.0000

  Mayer bond orders larger than 0.100000
B(  0-S ,  8-O ) :   1.6975 B(  0-S ,  9-O ) :   1.8539 B(  0-S , 12-N ) :   1.2510 
B(  0-S , 13-C ) :   0.8408 B(  1-S , 10-O ) :   1.7733 B(  1-S , 11-O ) :   1.7409 
B(  1-S , 12-N ) :   1.2734 B(  1-S , 14-C ) :   0.8477 B(  2-F , 13-C ) :   1.1379 
B(  3-F , 13-C ) :   1.1328 B(  4-F , 13-C ) :   1.1330 B(  5-F , 14-C ) :   1.1367 
B(  6-F , 14-C ) :   1.1289 B(  7-F , 14-C ) :   1.1499 B( 15-N , 17-C ) :   0.8691 
B( 15-N , 20-C ) :   1.3647 B( 15-N , 21-C ) :   1.1610 B( 16-N , 20-C ) :   1.3607 
B( 16-N , 22-C ) :   1.1598 B( 16-N , 24-C ) :   0.8854 B( 17-C , 18-C ) :   0.9356 
B( 17-C , 25-H ) :   0.9522 B( 17-C , 26-H ) :   0.9631 B( 18-C , 19-C ) :   0.9661 
B( 18-C , 27-H ) :   0.9591 B( 18-C , 28-H ) :   0.9687 B( 19-C , 23-C ) :   0.9667 
B( 19-C , 29-H ) :   0.9545 B( 19-C , 30-H ) :   0.9615 B( 20-C , 31-H ) :   0.8863 
B( 21-C , 22-C ) :   1.6774 B( 21-C , 32-H ) :   0.9488 B( 22-C , 33-H ) :   0.9480 
B( 23-C , 34-H ) :   0.9744 B( 23-C , 35-H ) :   0.9782 B( 23-C , 36-H ) :   0.9782 
B( 24-C , 37-H ) :   0.9599 B( 24-C , 38-H ) :   0.9513 B( 24-C , 39-H ) :   0.9654 


-------
TIMINGS
-------

Total SCF time: 0 days 0 hours 0 min 17 sec 

Total time                  ....      17.079 sec
Sum of individual times     ....      16.939 sec  ( 99.2%)

SCF preparation             ....       0.939 sec  (  5.5%)
Fock matrix formation       ....      14.214 sec  ( 83.2%)
  Startup                   ....       0.056 sec  (  0.4% of F)
  Split-RI-J                ....       1.088 sec  (  7.7% of F)
  Chain of spheres X        ....      11.847 sec  ( 83.3% of F)
  XC integration            ....       1.069 sec  (  7.5% of F)
    XC Preparation          ....       0.000 sec  (  0.0% of XC)
    Basis function eval.    ....       0.226 sec  ( 21.1% of XC)
    Density eval.           ....       0.333 sec  ( 31.2% of XC)
    XC-Functional eval.     ....       0.017 sec  (  1.6% of XC)
    XC-Potential eval.      ....       0.342 sec  ( 31.9% of XC)
Diagonalization             ....       0.000 sec  (  0.0%)
Density matrix formation    ....       0.161 sec  (  0.9%)
Total Energy calculation    ....       0.080 sec  (  0.5%)
Population analysis         ....       0.198 sec  (  1.2%)
Orbital Transformation      ....       0.255 sec  (  1.5%)
Orbital Orthonormalization  ....       0.000 sec  (  0.0%)
DIIS solution               ....       0.294 sec  (  1.7%)
SOSCF solution              ....       0.796 sec  (  4.7%)
Finished LeanSCF after  17.2 sec

Maximum memory used throughout the entire LEANSCF-calculation: 133.1 MB


-------------------------------------------------------------------------------
                          DFT DISPERSION CORRECTION                            
                                                                               
                                DFTD4 V3.4.0                                   
-------------------------------------------------------------------------------
The B3LYP functional is recognized
Active option DFTDOPT                   ...         5   

-------------------------   ----------------
Dispersion correction           -0.092481131
-------------------------   ----------------


-------------------------   --------------------
FINAL SINGLE POINT ENERGY     -2250.591695046225
-------------------------   --------------------

                                *** OPTIMIZATION RUN DONE ***



           ************************************************************
           *        Program running with 30 parallel MPI-processes    *
           *              working on a common directory               *
           ************************************************************

------------------------------------------------------------------------------
                              ORCA PROPERTY CALCULATIONS
------------------------------------------------------------------------------

GBWName                                 ... input.gbw
Number of atoms                         ...     40
Number of basis functions               ...    877
Max core memory                         ...   5000 MB

Electric properties:
Dipole moment                           ... YES
Quadrupole moment                       ...  NO
Static polarizability (Dipole/Dipole)   ...  NO
Static polarizability (Dipole/Quad.)    ...  NO
Static polarizability (Quad./Quad.)     ...  NO
Static polarizability (Velocity)        ...  NO

Atomic electric properties:
Dipole moment                           ...  NO
Quadrupole moment                       ...  NO
Static polarizability                   ...  NO

Choice of electric origin               ... Center of mass
Position of electric origin             ...     3.873147     2.148744     5.574423

General magnetic properties:
Magnetizability                         ...  NO

EPR properties:
g-Tensor (aka g-matrix)                 ...  NO
Zero-Field splitting spin-orbit         ...  NO
Zero-field splitting spin-spin          ...  NO
Hyperfine couplings                     ...  NO (   0 nuclei)
Quadrupole couplings                    ...  NO (   0 nuclei)
Contact density                         ...  NO (   0 nuclei)

NMR properties:
Chemical shifts                         ...  NO (   0 nuclei)
Spin-rotation constants                 ...  NO (   0 nuclei)
Spin-spin couplings                     ...  NO (   0 nuclei,    0 pairs)

Choice of magnetic origin               ... GIAO
Position of magnetic origin             ...     0.000000     0.000000     0.000000

Properties with geometric perturbations:
SCF Hessian                             ...  NO
IR spectrum                             ...  NO
VCD spectrum                            ...  NO
X-ray spectroscopy properties:
SCF XES/XAS/RIXS spectra                ...  NO


-------------
DIPOLE MOMENT
-------------

Method             : SCF
Type of density    : Electron Density
Multiplicity       :   1
Irrep              :   0
Energy             : -2250.4992139152805066 Eh
Relativity type    : 
Basis              : AO
                                X                 Y                 Z
Electronic contribution:      6.551661107      30.425760249      36.331939833
Nuclear contribution   :     -8.648782088     -30.588009760     -40.153351054
                        -----------------------------------------
Total Dipole Moment    :     -2.097120981      -0.162249511      -3.821411221
                        -----------------------------------------
Magnitude (a.u.)       :      4.362043677
Magnitude (Debye)      :     11.087433893



--------------------
Rotational spectrum 
--------------------
 
Rotational constants in cm-1:             0.007373             0.005963             0.004669 
Rotational constants in MHz :           221.049938           178.759078           139.973750 

Dipole components along the rotational axes: 
x,y,z [a.u.] :    -4.097223    -1.133027     0.977977 
x,y,z [Debye]:   -10.414313    -2.879925     2.485819 

 

Dipole moment calculation done in   0.0 sec 

Maximum memory used throughout the entire PROP-calculation: 74.9 MB

--------------------------------
SUGGESTED CITATIONS FOR THIS RUN
--------------------------------

Below you find a list of papers that are relevant to this ORCA run
We neither can nor want to force you to cite these papers, but we appreciate if you do
You receive ORCA, which is the product of decades of hard work by many enthusiastic individuals, for free
The only thing we kindly ask in return is that you cite our papers,
We deeply appreciate it, if you show your appreciation for ORCA by not just citing the generic ORCA reference.

Please note that relegating all ORCA citations to the supporting information does *not* help us.
SI sections are not indexed - citations you put there will not count into any citation statistics
But we need these citations in order to attract the funding resources that allow us to do what we are doing

Therefore, if you are a happy ORCA user, please consider citing a few of the papers listed below in the main body of your paper

In addition to the list printed below, the program has created the file input.bibtex that contains the list in bibtex format
You can import this file easily into all common literature databanks and citation aid programs


List of essential papers. We consider these as the minimum necessary citations

  1. Neese,F.
     Software update: the ORCA program system, version 5.0
     WIRES Comput. Molec. Sci., 2022 12(1)e1606
     doi.org/10.1002/wcms.1606

List of papers to cite with high priority. The work reported in these papers was absolutely
necessary for this run to complete.
Our perspective: the developers of density functionals and basis sets usually get cited in chemistry papers
Good! But without the algorithms to do something with them, the functionals or basis sets would not do anything.
Hence, in our opinion, the algorithm design and method developments papers are equally worthy of getting cited

  1. Neese,F.
     An improvement of the resolution of the identity approximation for the formation of the Coulomb matrix
     J. Comp. Chem., 2003 24(14)1740-1747
     doi.org/10.1002/jcc.10318
  2. Neese,F.; Wennmohs,F.; Hansen,A.; Becker,U.
     Efficient, approximate and parallel Hartree-Fock and hybrid DFT calculations. A 'chain-of-spheres' algorithm for the Hartree-Fock exchange
     Chem. Phys., 2009 356(1-3)98-109
     doi.org/10.1016/j.chemphys.2008.10.036
  3. Helmich-Paris,B.; de Souza,B.; Neese,F.; Izsák,R.
     An improved chain of spheres for exchange algorithm
     J. Chem. Phys., 2021 155 104109
     doi.org/doi: 10.1063/5.0058766.
  4. Neese,F.
     The SHARK Integral Generation and Digestion System
     J. Comp. Chem., 2022  1-16
     doi.org/10.1002/jcc.26942
  5. Caldeweyher,E.; Bannwarth,C.; Grimme,S.
     Extension of the D3 dispersion coefficient model
     J. Chem. Phys., 2017 147 034112
     doi.org/10.1063/1.4993215
  6. Caldeweyher,E.; Ehlert,S.; Hansen,A.; Neugebauer,H.; Spicher,S.; Bannwarth,C.; Grimme,S.
     A generally applicable atomic-charge dependent London dispersion correction
     J. Chem. Phys., 2019 150 154122
     doi.org/10.1063/1.5090222
  7. Caldeweyher,E.; Mewes,J.; Ehlert,S.; Grimme,S.
     Extension and evaluation of the D4 London-dispersion model for periodic systems
     Phys. Chem. Chem. Phys., 2020 22(16)8499-8512
     doi.org/10.1039/D0CP00502A
  8. Wittmann,L.; Gordiy,I.; Friede,M.; Helmich-Paris,B.; Grimme,S.; Hansen,A.; Bursch,M.
     Extension of the D3 and D4 London Dispersion Corrections to the full Actinides Series
     Phys. Chem. Chem. Phys., 2024 26(32)21379-21394
     doi.org/https://doi.org/10.1039/D4CP01514B 

List of suggested additional citations. These are papers that are important in the 'surrounding' of 
of this run, or papers that preceded the highly important papers. If you like your results we are grateful for a citation.

  1. Izsak,R.; Neese,F.
     An overlap fitted chain of spheres exchange method
     J. Chem. Phys., 2011 135 144105
     doi.org/10.1063/1.3646921
  2. Izsak,R.; Hansen,A.; Neese,F.
     The resolution of identity and chain of spheres approximations for the LPNO-CCSD singles Fock term
     Molec. Phys., 2012 110 2413-2417
     doi.org/10.1080/00268976.2012.687466
  3. Neese,F.
     The ORCA program system
     WIRES Comput. Molec. Sci., 2012 2(1)73-78
     doi.org/10.1002/wcms.81
  4. Izsak,R.; Neese,F.; Klopper,W.
     Robust fitting techniques in the chain of spheres approximation to the Fock exchange: The role of the complementary space
     J. Chem. Phys., 2013 139 
     doi.org/10.1063/1.4819264
  5. Neese,F.
     Software update: the ORCA program system, version 4.0
     WIRES Comput. Molec. Sci., 2018 8(1)1-6
     doi.org/10.1002/wcms.1327
  6. Neese,F.; Wennmohs,F.; Becker,U.; Riplinger,C.
     The ORCA quantum chemistry program package
     J. Chem. Phys., 2020 152 Art. No. L224108
     doi.org/10.1063/5.0004608

List of optional additional citations

  1. Neese,F.
     Approximate second-order SCF convergence for spin unrestricted wavefunctions
     Chem. Phys. Lett., 2000 325(1-3)93-98
     doi.org/10.1016/s0009-2614(00)00662-x

Timings for individual modules:

Sum of individual times          ...       82.090 sec (=   1.368 min)
Startup calculation              ...        7.421 sec (=   0.124 min)   9.0 %
SCF iterations                   ...       61.531 sec (=   1.026 min)  75.0 %
Property calculations            ...        1.271 sec (=   0.021 min)   1.5 %
SCF Gradient evaluation          ...       11.838 sec (=   0.197 min)  14.4 %
Geometry relaxation              ...        0.028 sec (=   0.000 min)   0.0 %
                             ****ORCA TERMINATED NORMALLY****
TOTAL RUN TIME: 0 days 0 hours 1 minutes 24 seconds 347 msec
