--------------------------------------------------------------------------
WARNING: There was an error initializing an OpenFabrics device.

  Local host:   ga00
  Local device: mlx5_0
--------------------------------------------------------------------------

     Program PWSCF v.7.3.1 starts on 13Apr2025 at 16:39:49 

     This program is part of the open-source Quantum ESPRESSO suite
     for quantum simulation of materials; please cite
         "P. Giannozzi et al., J. Phys.:Condens. Matter 21 395502 (2009);
         "P. Giannozzi et al., J. Phys.:Condens. Matter 29 465901 (2017);
         "P. Giannozzi et al., J. Chem. Phys. 152 154105 (2020);
          URL http://www.quantum-espresso.org", 
     in publications or presentations arising from this work. More details at
     http://www.quantum-espresso.org/quote

     Parallel version (MPI), running on    31 processors

     MPI processes distributed on     1 nodes
     33716 MiB available memory on the printing compute node when the environment starts

     Waiting for input...
     Reading input from standard input
Warning: card &CELL ignored
Warning: card   CELL_DOFREE = 'ALL' ignored
Warning: card   CELL_DYNAMICS = 'BFGS', ignored
Warning: card / ignored

     Current dimensions of program PWSCF are:
     Max number of different atomic species (ntypx) = 10
     Max number of k-points (npk) =  40000
     Max angular momentum in pseudopotentials (lmaxx) =  4
     file C.pbe-n-kjpaw_psl.1.0.0.UPF: wavefunction(s)  2S 2P renormalized
     file O.pbe-n-kjpaw_psl.0.1.UPF: wavefunction(s)  2P renormalized

     R & G space division:  proc/nbgrp/npool/nimage =      31
     Subspace diagonalization in iterative solution of the eigenvalue problem:
     one sub-group per band group will be used
     custom distributed-memory algorithm (size of sub-group:  3*  3 procs)


     Parallelization info
     --------------------
     sticks:   dense  smooth     PW     G-vecs:    dense   smooth      PW
     Min        1349     674    168               179511    63460    7929
     Max        1350     675    169               179514    63463    7933
     Sum       41835   20921   5225              5564879  1967325  245841

     Using Slab Decomposition



     bravais-lattice index     =            0
     lattice parameter (alat)  =      30.1491  a.u.
     unit-cell volume          =   20353.3775 (a.u.)^3
     number of atoms/cell      =          124
     number of atomic types    =            5
     number of electrons       =       526.00
     number of Kohn-Sham states=          316
     kinetic-energy cutoff     =      80.0000  Ry
     charge density cutoff     =     640.0000  Ry
     scf convergence threshold =      1.0E-06
     mixing beta               =       0.2000
     number of iterations used =            8  plain     mixing
     energy convergence thresh.=      1.0E-04
     force convergence thresh. =      1.0E-03
     Exchange-correlation= SLA  PW   PBX  PBC
                           (   1   4   3   4   0   0   0)
     nstep                     =          300


     celldm(1)=  30.149070  celldm(2)=   0.000000  celldm(3)=   0.000000
     celldm(4)=   0.000000  celldm(5)=   0.000000  celldm(6)=   0.000000

     crystal axes: (cart. coord. in units of alat)
               a(1) = (   0.999374  -0.034929   0.005614 )  
               a(2) = (  -0.409708   0.918648  -0.003543 )  
               a(3) = (  -0.290503  -0.442929   0.820779 )  

     reciprocal axes: (cart. coord. in units 2 pi/alat)
               b(1) = (  1.013109  0.454164  0.603662 )  
               b(2) = (  0.035253  1.106629  0.609664 )  
               b(3) = ( -0.006777  0.001670  1.216857 )  


     PseudoPot. # 1 for Ti read from file:
     /home/yongsang/Research/PSID_server_room/qe/[00]QE/qepseudo/SSSP_1.3.0_PBE_efficiency/ti_pbe_v1.4.uspp.F.UPF
     MD5 check sum: 88a00a6731bd790ddea75d31a80cb452
     Pseudo is Ultrasoft + core correction, Zval = 12.0
     Generated by new atomic code, or converted to UPF format
     Using radial grid of  851 points,  6 beta functions with: 
                l(1) =   0
                l(2) =   0
                l(3) =   1
                l(4) =   1
                l(5) =   2
                l(6) =   2
     Q(r) pseudized with  6 coefficients,  rinner =    1.000   1.000   1.000
                                                       1.000   1.000

     PseudoPot. # 2 for N  read from file:
     /home/yongsang/Research/PSID_server_room/qe/[00]QE/qepseudo/SSSP_1.3.0_PBE_efficiency/N.pbe-n-radius_5.UPF
     MD5 check sum: 16739722b17309cd8fe442a2ace49922
     Pseudo is Ultrasoft + core correction, Zval =  5.0
     Generated using "atomic" code by A. Dal Corso  v.5.1
     Using radial grid of 1085 points,  4 beta functions with: 
                l(1) =   0
                l(2) =   0
                l(3) =   1
                l(4) =   1
     Q(r) pseudized with 0 coefficients 


     PseudoPot. # 3 for C  read from file:
     /home/yongsang/Research/PSID_server_room/qe/[00]QE/qepseudo/SSSP_1.3.0_PBE_efficiency/C.pbe-n-kjpaw_psl.1.0.0.UPF
     MD5 check sum: 5d2aebdfa2cae82b50a7e79e9516da0f
     Pseudo is Projector augmented-wave + core cor, Zval =  4.0
     Generated using "atomic" code by A. Dal Corso  v.5.1
     Shape of augmentation charge: PSQ
     Using radial grid of 1073 points,  4 beta functions with: 
                l(1) =   0
                l(2) =   0
                l(3) =   1
                l(4) =   1
     Q(r) pseudized with 0 coefficients 


     PseudoPot. # 4 for H  read from file:
     /home/yongsang/Research/PSID_server_room/qe/[00]QE/qepseudo/SSSP_1.3.0_PBE_efficiency/H.pbe-rrkjus_psl.1.0.0.UPF
     MD5 check sum: f52b6d4d1c606e5624b1dc7b2218f220
     Pseudo is Ultrasoft, Zval =  1.0
     Generated using "atomic" code by A. Dal Corso  v.5.1
     Using radial grid of  929 points,  2 beta functions with: 
                l(1) =   0
                l(2) =   0
     Q(r) pseudized with 0 coefficients 


     PseudoPot. # 5 for O  read from file:
     /home/yongsang/Research/PSID_server_room/qe/[00]QE/qepseudo/SSSP_1.3.0_PBE_efficiency/O.pbe-n-kjpaw_psl.0.1.UPF
     MD5 check sum: 0234752ac141de4415c5fc33072bef88
     Pseudo is Projector augmented-wave + core cor, Zval =  6.0
     Generated using "atomic" code by A. Dal Corso  v.5.0.99 svn rev. 10869
     Shape of augmentation charge: BESSEL
     Using radial grid of 1095 points,  4 beta functions with: 
                l(1) =   0
                l(2) =   0
                l(3) =   1
                l(4) =   1
     Q(r) pseudized with 0 coefficients 


     atomic species   valence    mass     pseudopotential
     Ti               12.00    47.86700     Ti( 1.00)
     N                 5.00    14.00674     N ( 1.00)
     C                 4.00    12.01070     C ( 1.00)
     H                 1.00     1.00794     H ( 1.00)
     O                 6.00    15.99940     O ( 1.00)

     No symmetry found


                                    s                        frac. trans.

      isym =  1     identity                                     

 cryst.   s( 1) = (     1          0          0      )
                  (     0          1          0      )
                  (     0          0          1      )

 cart.    s( 1) = (  1.0000000  0.0000000  0.0000000 )
                  ( -0.0000000  1.0000000  0.0000000 )
                  (  0.0000000  0.0000000  1.0000000 )


   Cartesian axes

     site n.     atom                  positions (alat units)
         1        Ti     tau(   1) = (  -0.1797271   0.1371281   0.7033818  )
         2        Ti     tau(   2) = (   0.4916574   0.3187794   0.1165871  )
         3        Ti     tau(   3) = (   0.0765269  -0.1061372   0.5856410  )
         4        Ti     tau(   4) = (   0.1691269   0.4686137   0.2311966  )
         5        Ti     tau(   5) = (   0.1087930   0.5715478   0.1102491  )
         6        Ti     tau(   6) = (   0.1904268  -0.1251622   0.7102047  )
         7        Ti     tau(   7) = (  -0.1224430   0.0304121   0.5830106  )
         8        Ti     tau(   8) = (   0.3712621   0.3387596   0.2352330  )
         9        H      tau(   9) = (   0.2313799   0.1013285   0.5446288  )
        10        H      tau(  10) = (  -0.0135021  -0.2668884   0.4078563  )
        11        H      tau(  11) = (   0.2939533   0.6773544   0.2908912  )
        12        H      tau(  12) = (  -0.1352203   0.3836944   0.6904702  )
        13        H      tau(  13) = (   0.5345792   0.0723414   0.1356191  )
        14        H      tau(  14) = (  -0.4251073   0.0831232   0.6812825  )
        15        H      tau(  15) = (   0.7029608   0.4529488   0.1292384  )
        16        H      tau(  16) = (   0.2696257  -0.3783773   0.6880732  )
        17        H      tau(  17) = (  -0.1504306   0.5454953   0.1287693  )
        18        H      tau(  18) = (   0.2921291   0.1939318   0.4328817  )
        19        H      tau(  19) = (  -0.0037904   0.2317970   0.5250983  )
        20        H      tau(  20) = (  -0.2331597  -0.1105653   0.3968409  )
        21        H      tau(  21) = (   0.1375693   0.4677653  -0.0073031  )
        22        H      tau(  22) = (   0.3758250   0.3017509   0.0081552  )
        23        H      tau(  23) = (   0.2358580  -0.1524517   0.3656314  )
        24        H      tau(  24) = (   0.0620611   0.5860924   0.4557851  )
        25        H      tau(  25) = (  -0.3674634   0.2568518   0.5621516  )
        26        H      tau(  26) = (   0.6683108   0.1881587   0.2608305  )
        27        H      tau(  27) = (  -0.2314869   0.1524391   0.3538544  )
        28        H      tau(  28) = (  -0.0769190   0.7025356   0.2560868  )
        29        H      tau(  29) = (   0.1205507   0.7657635   0.1606445  )
        30        H      tau(  30) = (   0.5219951  -0.0540762   0.2103515  )
        31        H      tau(  31) = (   0.3016025   0.4494300   0.1495549  )
        32        H      tau(  32) = (   0.0106915   0.0115229   0.6637217  )
        33        H      tau(  33) = (   0.4624396  -0.0146006   0.6128558  )
        34        H      tau(  34) = (   0.3678266  -0.0429982   0.6593950  )
        35        H      tau(  35) = (   0.5075249   0.2992532   0.5415928  )
        36        H      tau(  36) = (   0.4680035   0.3151895   0.4404633  )
        37        H      tau(  37) = (   0.4294254  -0.3108351   0.5991165  )
        38        H      tau(  38) = (   0.3481097  -0.2428757   0.6278657  )
        39        H      tau(  39) = (   0.0842072   0.1219372   0.5899036  )
        40        H      tau(  40) = (   0.0567543   0.3245655   0.4132411  )
        41        H      tau(  41) = (   0.3733607   0.5528052   0.2432316  )
        42        H      tau(  42) = (  -0.4861265   0.5557586   0.2968141  )
        43        C      tau(  43) = (   0.5343954   0.2775011   0.2953394  )
        44        C      tau(  44) = (  -0.2378821   0.1599308   0.5253807  )
        45        C      tau(  45) = (   0.2402920  -0.1659924   0.5308585  )
        46        C      tau(  46) = (   0.0526825   0.5981245   0.2886231  )
        47        C      tau(  47) = (   0.5919684   0.2419125   0.3576227  )
        48        C      tau(  48) = (  -0.2943170   0.2012911   0.4640579  )
        49        C      tau(  49) = (   0.3006394  -0.2027911   0.4721370  )
        50        C      tau(  50) = (  -0.0018126   0.6405510   0.3509047  )
        51        C      tau(  51) = (   0.5798428   0.2518785   0.4459416  )
        52        C      tau(  52) = (  -0.2831151   0.1905319   0.3770097  )
        53        C      tau(  53) = (   0.3694395  -0.2532787   0.5008203  )
        54        C      tau(  54) = (  -0.0677899   0.6926711   0.3229657  )
        55        C      tau(  55) = (   0.0110170   0.6270949   0.4360614  )
        56        C      tau(  56) = (   0.2888652  -0.1908204   0.3852462  )
        57        C      tau(  57) = (   0.6608825   0.1944248   0.3284362  )
        58        C      tau(  58) = (  -0.3605217   0.2494236   0.4945598  )
        59        C      tau(  59) = (   0.1781456   0.2648609   0.4168300  )
        60        C      tau(  60) = (   0.1104649   0.1616610   0.5409815  )
        61        C      tau(  61) = (   0.3999876   0.5936632   0.2910390  )
        62        C      tau(  62) = (  -0.1197411  -0.1832482   0.4088070  )
        63        C      tau(  63) = (   0.5471752   0.0767769   0.0021551  )
        64        C      tau(  64) = (   0.1416860   0.8195601   0.0034292  )
        65        C      tau(  65) = (   0.7009746   0.4389614  -0.0046759  )
        66        C      tau(  66) = (  -0.1350768   0.5387889  -0.0058648  )
        67        C      tau(  67) = (   0.2144360   0.3202319   0.3517481  )
        68        C      tau(  68) = (  -0.0819403  -0.1259786   0.4713460  )
        69        C      tau(  69) = (   0.5381990   0.1692580   0.0007397  )
        70        C      tau(  70) = (   0.1377388   0.7286700   0.0006826  )
        71        C      tau(  71) = (   0.6185504   0.4003924  -0.0018427  )
        72        C      tau(  72) = (  -0.0466443   0.5671282  -0.0038990  )
        73        C      tau(  73) = (   0.0944310   0.2756025   0.4424023  )
        74        C      tau(  74) = (   0.1935948   0.1502925   0.5155086  )
        75        C      tau(  75) = (   0.3553852   0.6642373   0.3178502  )
        76        C      tau(  76) = (  -0.0754317  -0.2545644   0.3818494  )
        77        C      tau(  77) = (   0.5420776   0.0353083   0.0786323  )
        78        C      tau(  78) = (  -0.1414550   0.4207162   0.7474991  )
        79        C      tau(  79) = (   0.7390509   0.4622116   0.0720474  )
        80        C      tau(  80) = (  -0.4618598   0.0751797   0.7384138  )
        81        C      tau(  81) = (   0.4791634   0.5759217   0.3242601  )
        82        C      tau(  82) = (  -0.1996249  -0.1661596   0.3756081  )
        83        C      tau(  83) = (   0.2274785   0.2016589   0.4535671  )
        84        C      tau(  84) = (   0.0608710   0.2240103   0.5043509  )
        85        C      tau(  85) = (   0.4556347   0.0073952   0.7391827  )
        86        C      tau(  86) = (  -0.1801392   0.5289666   0.0696587  )
        87        C      tau(  87) = (   0.2660242  -0.4116638   0.7475206  )
        88        C      tau(  88) = (   0.1339843   0.8657469   0.0802441  )
        89        N      tau(  89) = (   0.1279582   0.8287851   0.1569371  )
        90        N      tau(  90) = (   0.4231903  -0.0118992   0.6624867  )
        91        N      tau(  91) = (   0.5154416   0.2973326   0.4788127  )
        92        N      tau(  92) = (   0.3866385  -0.2669216   0.5832922  )
        93        O      tau(  93) = (   0.4613513   0.3045489   0.3192562  )
        94        O      tau(  94) = (  -0.1896744   0.1002125   0.5000282  )
        95        O      tau(  95) = (   0.2610129  -0.1619542   0.6085097  )
        96        O      tau(  96) = (   0.0486264   0.6229584   0.2128123  )
        97        O      tau(  97) = (   0.1000885   0.5374464   0.3132092  )
        98        O      tau(  98) = (   0.1681085  -0.1405207   0.5043163  )
        99        O      tau(  99) = (   0.5571168   0.2789007   0.2185575  )
       100        O      tau( 100) = (  -0.2415732   0.1843137   0.6013801  )
       101        O      tau( 101) = (   0.3891882   0.2616531   0.1601692  )
       102        O      tau( 102) = (  -0.0860713   0.1267057   0.6350136  )
       103        O      tau( 103) = (   0.4476521   0.4053672   0.1822388  )
       104        O      tau( 104) = (  -0.1977459   0.0205769   0.6612739  )
       105        O      tau( 105) = (   0.0914474  -0.1817268   0.6637428  )
       106        O      tau( 106) = (   0.2036786   0.5645675   0.1792828  )
       107        O      tau( 107) = (   0.1505270  -0.0387093   0.6429039  )
       108        O      tau( 108) = (   0.0937586   0.4567375   0.1525335  )
       109        O      tau( 109) = (   0.2905492   0.3082967   0.3291607  )
       110        O      tau( 110) = (  -0.1244620  -0.0627024   0.4964227  )
       111        O      tau( 111) = (   0.2415619  -0.2375615   0.7502812  )
       112        O      tau( 112) = (   0.1328347   0.6865867   0.0694811  )
       113        O      tau( 113) = (   0.2901606  -0.0617234   0.7502603  )
       114        O      tau( 114) = (  -0.0115525   0.5745505   0.0676459  )
       115        O      tau( 115) = (  -0.0079250  -0.1418634   0.4980323  )
       116        O      tau( 116) = (   0.1685984   0.3781619   0.3206244  )
       117        O      tau( 117) = (   0.5844197   0.3845271   0.0694829  )
       118        O      tau( 118) = (  -0.3004082   0.1384430   0.7473545  )
       119        O      tau( 119) = (   0.5358007   0.2078678   0.0706961  )
       120        O      tau( 120) = (  -0.1528159   0.2479113   0.7501899  )
       121        O      tau( 121) = (   0.2784921   0.4147734   0.1941867  )
       122        O      tau( 122) = (  -0.0140931  -0.0242908   0.6209511  )
       123        O      tau( 123) = (   0.4289402   0.3315835   0.0039482  )
       124        O      tau( 124) = (   0.1443633   0.5283592  -0.0041838  )

     --------------------------------------------
     DFT-D3 Dispersion Correction (3-body terms):
     --------------------------------------------
       Reference C6 values for interpolation: 

         atom   Coordination number   C6
         H          0.912             6.05
         H          0.000            15.18
         C          0.000            98.23
         C          0.987            86.49
         C          1.998            58.72
         C          2.999            51.56
         C          3.984            36.41
         N          0.000            50.54
         N          0.994            44.25
         N          2.014            39.35
         N          2.990            31.16
         O          0.000            31.01
         O          0.993            25.63
         O          1.989            20.74
         Ti         0.000          2723.84
         Ti         1.830           604.00
         Ti         3.868           643.18

       Values used:

         atom   Coordination number  R0_AB[au]  C6      C8
         Ti         7.347            3.557    643.18  76289.64
         Ti         7.357            3.557    643.18  76289.64
         Ti         6.308            3.557    643.18  76289.64
         Ti         6.294            3.557    643.18  76289.64
         Ti         7.358            3.557    643.18  76289.64
         Ti         7.337            3.557    643.18  76289.64
         Ti         6.295            3.557    643.18  76289.64
         Ti         6.291            3.557    643.18  76289.64
         H          1.003            2.062      6.18     74.68
         H          1.004            2.062      6.18     74.67
         H          1.004            2.062      6.18     74.68
         H          1.005            2.062      6.18     74.66
         H          1.005            2.062      6.18     74.66
         H          1.005            2.062      6.18     74.66
         H          1.005            2.062      6.18     74.66
         H          1.004            2.062      6.18     74.67
         H          1.004            2.062      6.18     74.67
         H          1.004            2.062      6.18     74.67
         H          1.004            2.062      6.18     74.68
         H          1.004            2.062      6.18     74.67
         H          1.083            2.062      6.12     74.03
         H          1.083            2.062      6.12     74.03
         H          1.005            2.062      6.18     74.67
         H          1.005            2.062      6.18     74.67
         H          1.005            2.062      6.18     74.66
         H          1.005            2.062      6.18     74.66
         H          1.004            2.062      6.18     74.68
         H          1.004            2.062      6.18     74.67
         H          1.014            2.062      6.17     74.57
         H          1.007            2.062      6.17     74.64
         H          1.105            2.062      6.11     73.90
         H          1.108            2.062      6.11     73.88
         H          1.007            2.062      6.17     74.64
         H          1.014            2.062      6.17     74.57
         H          1.007            2.062      6.18     74.65
         H          1.012            2.062      6.17     74.59
         H          1.007            2.062      6.17     74.65
         H          1.013            2.062      6.17     74.58
         H          1.006            2.062      6.18     74.66
         H          1.004            2.062      6.18     74.67
         H          1.007            2.062      6.18     74.65
         H          1.004            2.062      6.18     74.68
         C          3.356            2.750     47.36   1369.72
         C          3.368            2.750     47.06   1360.96
         C          3.356            2.750     47.35   1369.32
         C          3.360            2.750     47.25   1366.57
         C          3.210            2.750     49.94   1444.46
         C          3.187            2.750     50.19   1451.73
         C          3.208            2.750     49.97   1445.08
         C          3.187            2.750     50.20   1451.73
         C          3.162            2.750     50.43   1458.51
         C          3.153            2.750     50.51   1460.88
         C          3.164            2.750     50.42   1458.10
         C          3.158            2.750     50.47   1459.62
         C          3.209            2.750     49.95   1444.70
         C          3.169            2.750     50.37   1456.74
         C          3.174            2.750     50.32   1455.33
         C          3.214            2.750     49.90   1443.08
         C          3.186            2.750     50.20   1451.97
         C          3.138            2.750     50.63   1464.31
         C          3.138            2.750     50.62   1464.14
         C          3.186            2.750     50.21   1452.03
         C          3.191            2.750     50.16   1450.59
         C          3.210            2.750     49.94   1444.27
         C          3.211            2.750     49.93   1444.01
         C          3.193            2.750     50.14   1450.03
         C          3.219            2.750     49.83   1441.22
         C          3.219            2.750     49.84   1441.34
         C          3.243            2.750     49.52   1432.14
         C          3.267            2.750     49.15   1421.57
         C          3.266            2.750     49.17   1422.05
         C          3.252            2.750     49.38   1428.26
         C          3.166            2.750     50.40   1457.63
         C          3.128            2.750     50.70   1466.37
         C          3.129            2.750     50.70   1466.19
         C          3.167            2.750     50.39   1457.36
         C          3.216            2.750     49.88   1442.51
         C          3.175            2.750     50.31   1455.02
         C          3.176            2.750     50.30   1454.89
         C          3.213            2.750     49.90   1443.31
         C          3.129            2.750     50.69   1466.14
         C          3.166            2.750     50.40   1457.62
         C          3.166            2.750     50.39   1457.45
         C          3.129            2.750     50.69   1466.11
         C          3.165            2.750     50.40   1457.77
         C          3.158            2.750     50.46   1459.52
         C          3.156            2.750     50.48   1460.07
         C          3.164            2.750     50.41   1457.98
         N          3.092            2.478     31.24    689.16
         N          3.092            2.478     31.24    689.17
         N          3.090            2.478     31.24    689.19
         N          3.092            2.478     31.24    689.17
         O          2.045            2.345     20.80    419.67
         O          2.036            2.345     20.80    419.74
         O          2.067            2.345     20.79    419.49
         O          2.049            2.345     20.79    419.63
         O          2.039            2.345     20.80    419.72
         O          2.038            2.345     20.80    419.73
         O          2.061            2.345     20.79    419.54
         O          2.058            2.345     20.79    419.56
         O          1.993            2.345     20.82    420.21
         O          2.012            2.345     20.81    419.99
         O          2.011            2.345     20.81    420.00
         O          1.993            2.345     20.82    420.21
         O          1.998            2.345     20.82    420.14
         O          2.011            2.345     20.81    419.99
         O          2.012            2.345     20.81    419.99
         O          1.998            2.345     20.82    420.15
         O          2.030            2.345     20.80    419.80
         O          2.031            2.345     20.80    419.79
         O          2.023            2.345     20.81    419.87
         O          2.057            2.345     20.79    419.57
         O          2.056            2.345     20.79    419.58
         O          2.036            2.345     20.80    419.75
         O          2.033            2.345     20.80    419.77
         O          2.031            2.345     20.80    419.79
         O          2.053            2.345     20.79    419.60
         O          2.033            2.345     20.80    419.77
         O          2.036            2.345     20.80    419.75
         O          2.051            2.345     20.79    419.61
         O          2.951            2.345     20.74    418.58
         O          2.952            2.345     20.74    418.58
         O          2.942            2.345     20.74    418.58
         O          2.942            2.345     20.74    418.58

         Molecular C6 ( Ry / a.u.^6 ) =    592725.54


   Crystallographic axes

     site n.     atom                  positions (cryst. coord.)
         1        Ti     tau(   1) = (  0.3048006  0.5742405  0.8573624  )
         2        Ti     tau(   2) = (  0.7132598  0.4411819  0.1390700  )
         3        Ti     tau(   3) = (  0.3828558  0.2422874  0.7119457  )
         4        Ti     tau(   4) = (  0.5237360  0.6654961  0.2809696  )
         5        Ti     tau(   5) = (  0.4363488  0.7035417  0.1343745  )
         6        Ti     tau(   6) = (  0.5648027  0.3011911  0.8627182  )
         7        Ti     tau(   7) = (  0.2417056  0.3847790  0.7103214  )
         8        Ti     tau(   8) = (  0.6719825  0.5313824  0.2842945  )
         9        H      tau(   9) = (  0.6092046  0.4523303  0.6613367  )
        10        H      tau(  10) = (  0.1113173 -0.0471672  0.4959488  )
        11        H      tau(  11) = (  0.7810366  0.9372886  0.3531119  )
        12        H      tau(  12) = (  0.4540781  0.8407953  0.8417609  )
        13        H      tau(  13) = (  0.6563098  0.1815826  0.1615268  )
        14        H      tau(  14) = (  0.0183362  0.4923536  0.8320436  )
        15        H      tau(  15) = (  0.9959050  0.6048197  0.1532567  )
        16        H      tau(  16) = (  0.5166786  0.0102751  0.8348277  )
        17        H      tau(  17) = (  0.1730749  0.6768639  0.1586243  )
        18        H      tau(  18) = (  0.6453498  0.4888213  0.5250993  )
        19        H      tau(  19) = (  0.4184158  0.5765131  0.6393825  )
        20        H      tau(  20) = ( -0.0468731  0.1113652  0.4842944  )
        21        H      tau(  21) = (  0.3474062  0.5180400 -0.0090381  )
        22        H      tau(  22) = (  0.5227190  0.3521472  0.0078805  )
        23        H      tau(  23) = (  0.3904296  0.0625194  0.4430682  )
        24        H      tau(  24) = (  0.6041969  0.9286505  0.5551835  )
        25        H      tau(  25) = (  0.0837222  0.6140091  0.6869778  )
        26        H      tau(  26) = (  0.9199799  0.3908007  0.3131783  )
        27        H      tau(  27) = (  0.0483196  0.3762653  0.4324138  )
        28        H      tau(  28) = (  0.3957289  0.9308616  0.3133155  )
        29        H      tau(  29) = (  0.5668882  0.9496052  0.1959431  )
        30        H      tau(  30) = (  0.6312596  0.0868032  0.2523397  )
        31        H      tau(  31) = (  0.5999517  0.5991630  0.1806934  )
        32        H      tau(  32) = (  0.4167287  0.4177756  0.8076015  )
        33        H      tau(  33) = (  0.8318284  0.3737809  0.7425996  )
        34        H      tau(  34) = (  0.7511719  0.3673932  0.7998250  )
        35        H      tau(  35) = (  0.9770270  0.6792435  0.6561011  )
        36        H      tau(  36) = (  0.8831772  0.6338309  0.5333354  )
        37        H      tau(  37) = (  0.6555485  0.0364189  0.7256099  )
        38        H      tau(  38) = (  0.6213864  0.1262855  0.7612582  )
        39        H      tau(  39) = (  0.4967930  0.4975507  0.7174614  )
        40        H      tau(  40) = (  0.4543623  0.6131126  0.5030128  )
        41        H      tau(  41) = (  0.7761489  0.7732019  0.2943708  )
        42        H      tau(  42) = ( -0.0609180  0.7788381  0.3654032  )
        43        C      tau(  43) = (  0.8457168  0.5059875  0.3562275  )
        44        C      tau(  44) = (  0.1487869  0.4889036  0.6411927  )
        45        C      tau(  45) = (  0.4885134  0.1484242  0.6440734  )
        46        C      tau(  46) = (  0.4992505  0.8397223  0.3518549  )
        47        C      tau(  47) = (  0.9254796  0.5066057  0.4315678  )
        48        C      tau(  48) = (  0.0733783  0.4952984  0.5670232  )
        49        C      tau(  49) = (  0.4974913  0.0740286  0.5721472  )
        50        C      tau(  50) = (  0.5009068  0.9227224  0.4280828  )
        51        C      tau(  51) = (  0.9710360  0.5710517  0.5391380  )
        52        C      tau(  52) = (  0.0272929  0.4307168  0.4610040  )
        53        C      tau(  53) = (  0.5615786  0.0380702  0.6065001  )
        54        C      tau(  54) = (  0.4408699  0.9610408  0.3946193  )
        55        C      tau(  55) = (  0.5591991  0.9602008  0.5315970  )
        56        C      tau(  56) = (  0.4385467  0.0338866  0.4665133  )
        57        C      tau(  57) = (  0.9561110  0.4386898  0.3955055  )
        58        C      tau(  58) = (  0.0465786  0.5648252  0.6046686  )
        59        C      tau(  59) = (  0.5523957  0.5535091  0.5064575  )
        60        C      tau(  60) = (  0.5119036  0.5126098  0.6578186  )
        61        C      tau(  61) = (  0.8505406  0.8485017  0.3524334  )
        62        C      tau(  62) = (  0.0422459  0.0422259  0.4979654  )
        63        C      tau(  63) = (  0.5905182  0.1055669 -0.0009578  )
        64        C      tau(  64) = (  0.5178281  0.9140346  0.0045811  )
        65        C      tau(  65) = (  0.9067013  0.5076281 -0.0097077  )
        66        C      tau(  66) = (  0.1043107  0.5879022 -0.0053214  )
        67        C      tau(  67) = (  0.5750218  0.5763855  0.4271087  )
        68        C      tau(  68) = (  0.1443043  0.1450623  0.5739058  )
        69        C      tau(  69) = (  0.6225714  0.2067299 -0.0024649  )
        70        C      tau(  70) = (  0.4708921  0.8116394  0.0011139  )
        71        C      tau(  71) = (  0.8073902  0.4637681 -0.0057659  )
        72        C      tau(  72) = (  0.2079598  0.6235792 -0.0034814  )
        73        C      tau(  73) = (  0.4878991  0.5780354  0.5381607  )
        74        C      tau(  74) = (  0.5755831  0.4874298  0.6262394  )
        75        C      tau(  75) = (  0.8535907  0.9413745  0.3854790  )
        76        C      tau(  76) = (  0.0384737 -0.0515678  0.4647424  )
        77        C      tau(  77) = (  0.6126866  0.1061222  0.0920693  )
        78        C      tau(  78) = (  0.4990018  0.9163132  0.9112610  )
        79        C      tau(  79) = (  1.0021510  0.5814752  0.0834344  )
        80        C      tau(  80) = (  0.0119823  0.5170984  0.9018001  )
        81        C      tau(  81) = (  0.9427510  0.8519133  0.3922925  )
        82        C      tau(  82) = ( -0.0509650  0.0380803  0.4581369  )
        83        C      tau(  83) = (  0.5958479  0.5077043  0.5507214  )
        84        C      tau(  84) = (  0.4678639  0.5575267  0.6136846  )
        85        C      tau(  85) = (  0.9111828  0.4748991  0.8964043  )
        86        C      tau(  86) = (  0.0997873  0.6214878  0.0868689  )
        87        C      tau(  87) = (  0.5337985  0.0095552  0.9071356  )
        88        C      tau(  88) = (  0.5773720  1.0117061  0.0981832  )
        89        N      tau(  89) = (  0.6007769  1.0173475  0.1914867  )
        90        N      tau(  90) = (  0.8232518  0.4056448  0.8032637  )
        91        N      tau(  91) = (  0.9462773  0.6391225  0.5796499  )
        92        N      tau(  92) = (  0.6225921  0.0738590  0.7067172  )
        93        O      tau(  93) = (  0.7984370  0.5479256  0.3858710  )
        94        O      tau(  94) = (  0.1552003  0.4090607  0.6099159  )
        95        O      tau(  95) = (  0.5582150  0.2009646  0.7384301  )
        96        O      tau(  96) = (  0.4606558  0.8208421  0.2596729  )
        97        O      tau(  97) = (  0.5345619  0.7892346  0.3813500  )
        98        O      tau(  98) = (  0.4109295  0.1578854  0.6123070  )
        99        O      tau(  99) = (  0.8230215  0.4615262  0.2626432  )
       100        O      tau( 100) = (  0.2019992  0.5620905  0.7337389  )
       101        O      tau( 101) = (  0.6098114  0.4009223  0.1927023  )
       102        O      tau( 102) = (  0.3536794  0.5243268  0.7735159  )
       103        O      tau( 103) = (  0.7476340  0.5754765  0.2194016  )
       104        O      tau( 104) = (  0.2081933  0.4189547  0.8060507  )
       105        O      tau( 105) = (  0.4107889  0.2067796  0.8067571  )
       106        O      tau( 106) = (  0.5709810  0.7412494  0.2177239  )
       107        O      tau( 107) = (  0.5230166  0.3544249  0.7812375  )
       108        O      tau( 108) = (  0.3945001  0.6017384  0.1857388  )
       109        O      tau( 109) = (  0.6330771  0.5520902  0.3990873  )
       110        O      tau( 110) = (  0.1451009  0.2288750  0.6048145  )
       111        O      tau( 111) = (  0.5897530  0.2030425  0.9109514  )
       112        O      tau( 112) = (  0.4883420  0.8068398  0.0847948  )
       113        O      tau( 113) = (  0.7188355  0.3993307  0.9108902  )
       114        O      tau( 114) = (  0.2900714  0.6766484  0.0833531  )
       115        O      tau( 115) = (  0.2281851  0.1463627  0.6058511  )
       116        O      tau( 116) = (  0.5361048  0.6199017  0.3896430  )
       117        O      tau( 117) = (  0.8086633  0.4884926  0.0812320  )
       118        O      tau( 118) = (  0.2096794  0.5982498  0.9116910  )
       119        O      tau( 119) = (  0.6799069  0.2920220  0.0827428  )
       120        O      tau( 120) = (  0.4106345  0.7263223  0.9143237  )
       121        O      tau( 121) = (  0.5877411  0.5872066  0.2351027  )
       122        O      tau( 122) = (  0.3495348  0.3511936  0.7556639  )
       123        O      tau( 123) = (  0.5875397  0.3844684  0.0024510  )
       124        O      tau( 124) = (  0.3836918  0.5872362 -0.0051872  )

     number of k points=     1  Gaussian smearing, width (Ry)=  0.0500
                       cart. coord. in units 2pi/alat
        k(    1) = (   0.0000000   0.0000000   0.0000000), wk =   2.0000000

                       cryst. coord.
        k(    1) = (   0.0000000   0.0000000   0.0000000), wk =   2.0000000

     Dense  grid:  5564879 G-vectors     FFT dimensions: ( 243, 250, 240)

     Smooth grid:  1967325 G-vectors     FFT dimensions: ( 180, 180, 180)

     Dynamical RAM for                 wfc:      38.25 MB

     Dynamical RAM for     wfc (w. buffer):      38.25 MB

     Dynamical RAM for           str. fact:      13.70 MB

     Dynamical RAM for           local pot:       0.00 MB

     Dynamical RAM for          nlocal pot:     105.07 MB

     Dynamical RAM for                qrad:      10.15 MB

     Dynamical RAM for          rho,v,vnew:      19.34 MB

     Dynamical RAM for               rhoin:       6.45 MB

     Dynamical RAM for            rho*nmix:      43.83 MB

     Dynamical RAM for           G-vectors:      10.76 MB

     Dynamical RAM for          h,s,v(r/c):       2.02 MB

     Dynamical RAM for          <psi|beta>:       4.19 MB

     Dynamical RAM for                 psi:      76.50 MB

     Dynamical RAM for                hpsi:      76.50 MB

     Dynamical RAM for                spsi:      76.50 MB

     Dynamical RAM for      wfcinit/wfcrot:     111.48 MB

     Dynamical RAM for           addusdens:     635.48 MB

     Dynamical RAM for          addusforce:     883.56 MB

     Estimated static dynamical RAM per process >     238.68 MB

     Estimated max dynamical RAM per process >       1.14 GB

     Estimated total dynamical RAM >      35.30 GB

     Initial potential from superposition of free atoms

     starting charge     517.9973, renormalised to     526.0000

     negative rho (up, down):  1.129E-02 0.000E+00
[ga00:2852385] 30 more processes have sent help message help-mpi-btl-openib.txt / error in device init
[ga00:2852385] Set MCA parameter "orte_base_help_aggregate" to 0 to see all help / error messages
     Starting wfcs are  442 randomized atomic wfcs
     Checking if some PAW data can be deallocated... 
       PAW data deallocated on   19 nodes for type:  3
       PAW data deallocated on   23 nodes for type:  5

     total cpu time spent up to now is       21.9 secs

     Self-consistent Calculation

     iteration #  1     ecut=    80.00 Ry     beta= 0.20
     Davidson diagonalization with overlap

---- Real-time Memory Report at c_bands before calling an iterative solver
           777 MiB given to the printing process from OS
             0 MiB allocation reported by mallinfo(arena+hblkhd)
         25146 MiB available memory on the node where the printing process lives
------------------
     ethr =  1.00E-02,  avg # of iterations =  3.0

     negative rho (up, down):  3.742E-03 0.000E+00

     total cpu time spent up to now is       69.0 secs

     total energy              =   -3218.90137500 Ry
     estimated scf accuracy    <     150.39510691 Ry

     iteration #  2     ecut=    80.00 Ry     beta= 0.20
     Davidson diagonalization with overlap

---- Real-time Memory Report at c_bands before calling an iterative solver
           958 MiB given to the printing process from OS
             0 MiB allocation reported by mallinfo(arena+hblkhd)
         25986 MiB available memory on the node where the printing process lives
------------------
     ethr =  1.00E-02,  avg # of iterations =  6.0

     negative rho (up, down):  4.898E-03 0.000E+00

     total cpu time spent up to now is      120.3 secs

     total energy              =   -3248.43809092 Ry
     estimated scf accuracy    <     148.88233622 Ry

     iteration #  3     ecut=    80.00 Ry     beta= 0.20
     Davidson diagonalization with overlap

---- Real-time Memory Report at c_bands before calling an iterative solver
           962 MiB given to the printing process from OS
             0 MiB allocation reported by mallinfo(arena+hblkhd)
         25877 MiB available memory on the node where the printing process lives
------------------
     ethr =  1.00E-02,  avg # of iterations =  2.0

     negative rho (up, down):  5.857E-03 0.000E+00

     total cpu time spent up to now is      156.6 secs

     total energy              =   -3261.61981703 Ry
     estimated scf accuracy    <      15.92082443 Ry

     iteration #  4     ecut=    80.00 Ry     beta= 0.20
     Davidson diagonalization with overlap

---- Real-time Memory Report at c_bands before calling an iterative solver
           965 MiB given to the printing process from OS
             0 MiB allocation reported by mallinfo(arena+hblkhd)
         25791 MiB available memory on the node where the printing process lives
------------------
     ethr =  3.03E-03,  avg # of iterations =  2.0

     negative rho (up, down):  1.070E-02 0.000E+00

     total cpu time spent up to now is      192.3 secs

     total energy              =   -3256.83821312 Ry
     estimated scf accuracy    <      10.51551412 Ry

     iteration #  5     ecut=    80.00 Ry     beta= 0.20
     Davidson diagonalization with overlap

---- Real-time Memory Report at c_bands before calling an iterative solver
           967 MiB given to the printing process from OS
             0 MiB allocation reported by mallinfo(arena+hblkhd)
         25680 MiB available memory on the node where the printing process lives
------------------
     ethr =  2.00E-03,  avg # of iterations =  9.0

     negative rho (up, down):  9.783E-03 0.000E+00

     total cpu time spent up to now is      254.9 secs

     total energy              =   -3259.88013145 Ry
     estimated scf accuracy    <      15.70248694 Ry

     iteration #  6     ecut=    80.00 Ry     beta= 0.20
     Davidson diagonalization with overlap

---- Real-time Memory Report at c_bands before calling an iterative solver
           970 MiB given to the printing process from OS
             0 MiB allocation reported by mallinfo(arena+hblkhd)
         25722 MiB available memory on the node where the printing process lives
------------------
     ethr =  2.00E-03,  avg # of iterations =  1.0

     negative rho (up, down):  9.156E-03 0.000E+00

     total cpu time spent up to now is      288.5 secs

     total energy              =   -3259.47951573 Ry
     estimated scf accuracy    <       5.33162919 Ry

     iteration #  7     ecut=    80.00 Ry     beta= 0.20
     Davidson diagonalization with overlap

---- Real-time Memory Report at c_bands before calling an iterative solver
           972 MiB given to the printing process from OS
             0 MiB allocation reported by mallinfo(arena+hblkhd)
         25629 MiB available memory on the node where the printing process lives
------------------
     ethr =  1.01E-03,  avg # of iterations =  2.0

     negative rho (up, down):  8.583E-03 0.000E+00

     total cpu time spent up to now is      324.4 secs

     total energy              =   -3259.39577431 Ry
     estimated scf accuracy    <       1.41264194 Ry

     iteration #  8     ecut=    80.00 Ry     beta= 0.20
     Davidson diagonalization with overlap

---- Real-time Memory Report at c_bands before calling an iterative solver
           974 MiB given to the printing process from OS
             0 MiB allocation reported by mallinfo(arena+hblkhd)
         25529 MiB available memory on the node where the printing process lives
------------------
     ethr =  2.69E-04,  avg # of iterations =  7.0

     negative rho (up, down):  8.666E-03 0.000E+00

     total cpu time spent up to now is      364.5 secs

     total energy              =   -3259.69990657 Ry
     estimated scf accuracy    <       0.55666777 Ry

     iteration #  9     ecut=    80.00 Ry     beta= 0.20
     Davidson diagonalization with overlap

---- Real-time Memory Report at c_bands before calling an iterative solver
           977 MiB given to the printing process from OS
             0 MiB allocation reported by mallinfo(arena+hblkhd)
         25452 MiB available memory on the node where the printing process lives
------------------
     ethr =  1.06E-04,  avg # of iterations = 10.0

     negative rho (up, down):  8.934E-03 0.000E+00

     total cpu time spent up to now is      403.9 secs

     total energy              =   -3259.68336576 Ry
     estimated scf accuracy    <       0.54203800 Ry

     iteration # 10     ecut=    80.00 Ry     beta= 0.20
     Davidson diagonalization with overlap

---- Real-time Memory Report at c_bands before calling an iterative solver
           979 MiB given to the printing process from OS
             0 MiB allocation reported by mallinfo(arena+hblkhd)
         25685 MiB available memory on the node where the printing process lives
------------------
     ethr =  1.03E-04,  avg # of iterations =  2.0

     negative rho (up, down):  9.436E-03 0.000E+00

     total cpu time spent up to now is      436.4 secs

     total energy              =   -3259.61337980 Ry
     estimated scf accuracy    <       0.33168183 Ry

     iteration # 11     ecut=    80.00 Ry     beta= 0.20
     Davidson diagonalization with overlap

---- Real-time Memory Report at c_bands before calling an iterative solver
           979 MiB given to the printing process from OS
             0 MiB allocation reported by mallinfo(arena+hblkhd)
         25424 MiB available memory on the node where the printing process lives
------------------
     ethr =  6.31E-05,  avg # of iterations =  7.0

     negative rho (up, down):  9.602E-03 0.000E+00

     total cpu time spent up to now is      473.8 secs

     total energy              =   -3259.63345357 Ry
     estimated scf accuracy    <       0.03428903 Ry

     iteration # 12     ecut=    80.00 Ry     beta= 0.20
     Davidson diagonalization with overlap

---- Real-time Memory Report at c_bands before calling an iterative solver
           979 MiB given to the printing process from OS
             0 MiB allocation reported by mallinfo(arena+hblkhd)
         25446 MiB available memory on the node where the printing process lives
------------------
     ethr =  6.52E-06,  avg # of iterations = 13.0

     negative rho (up, down):  9.637E-03 0.000E+00

     total cpu time spent up to now is      523.9 secs

     total energy              =   -3259.63893922 Ry
     estimated scf accuracy    <       0.01861990 Ry

     iteration # 13     ecut=    80.00 Ry     beta= 0.20
     Davidson diagonalization with overlap

---- Real-time Memory Report at c_bands before calling an iterative solver
           980 MiB given to the printing process from OS
             0 MiB allocation reported by mallinfo(arena+hblkhd)
         25432 MiB available memory on the node where the printing process lives
------------------
     ethr =  3.54E-06,  avg # of iterations =  2.0

     negative rho (up, down):  9.659E-03 0.000E+00

     total cpu time spent up to now is      556.5 secs

     total energy              =   -3259.63996898 Ry
     estimated scf accuracy    <       0.00374901 Ry

     iteration # 14     ecut=    80.00 Ry     beta= 0.20
     Davidson diagonalization with overlap

---- Real-time Memory Report at c_bands before calling an iterative solver
           980 MiB given to the printing process from OS
             0 MiB allocation reported by mallinfo(arena+hblkhd)
         25455 MiB available memory on the node where the printing process lives
------------------
     ethr =  7.13E-07,  avg # of iterations =  2.0

     negative rho (up, down):  9.713E-03 0.000E+00

     total cpu time spent up to now is      593.0 secs

     total energy              =   -3259.64009740 Ry
     estimated scf accuracy    <       0.00162714 Ry

     iteration # 15     ecut=    80.00 Ry     beta= 0.20
     Davidson diagonalization with overlap

---- Real-time Memory Report at c_bands before calling an iterative solver
           980 MiB given to the printing process from OS
             0 MiB allocation reported by mallinfo(arena+hblkhd)
         25461 MiB available memory on the node where the printing process lives
------------------
     ethr =  3.09E-07,  avg # of iterations =  5.0

     negative rho (up, down):  9.747E-03 0.000E+00

     total cpu time spent up to now is      630.5 secs

     total energy              =   -3259.64020845 Ry
     estimated scf accuracy    <       0.00056231 Ry

     iteration # 16     ecut=    80.00 Ry     beta= 0.20
     Davidson diagonalization with overlap

---- Real-time Memory Report at c_bands before calling an iterative solver
           980 MiB given to the printing process from OS
             0 MiB allocation reported by mallinfo(arena+hblkhd)
         25475 MiB available memory on the node where the printing process lives
------------------
     ethr =  1.07E-07,  avg # of iterations =  2.0

     negative rho (up, down):  9.769E-03 0.000E+00

     total cpu time spent up to now is      668.4 secs

     total energy              =   -3259.64023240 Ry
     estimated scf accuracy    <       0.00014803 Ry

     iteration # 17     ecut=    80.00 Ry     beta= 0.20
     Davidson diagonalization with overlap

---- Real-time Memory Report at c_bands before calling an iterative solver
           980 MiB given to the printing process from OS
             0 MiB allocation reported by mallinfo(arena+hblkhd)
         25480 MiB available memory on the node where the printing process lives
------------------
     ethr =  2.81E-08,  avg # of iterations =  5.0

     negative rho (up, down):  9.774E-03 0.000E+00

     total cpu time spent up to now is      703.7 secs

     total energy              =   -3259.64024724 Ry
     estimated scf accuracy    <       0.00005229 Ry

     iteration # 18     ecut=    80.00 Ry     beta= 0.20
     Davidson diagonalization with overlap

---- Real-time Memory Report at c_bands before calling an iterative solver
           980 MiB given to the printing process from OS
             0 MiB allocation reported by mallinfo(arena+hblkhd)
         25472 MiB available memory on the node where the printing process lives
------------------
     ethr =  9.94E-09,  avg # of iterations =  2.0

     negative rho (up, down):  9.785E-03 0.000E+00

     total cpu time spent up to now is      741.6 secs

     total energy              =   -3259.64025239 Ry
     estimated scf accuracy    <       0.00001560 Ry

     iteration # 19     ecut=    80.00 Ry     beta= 0.20
     Davidson diagonalization with overlap

---- Real-time Memory Report at c_bands before calling an iterative solver
           980 MiB given to the printing process from OS
             0 MiB allocation reported by mallinfo(arena+hblkhd)
         25467 MiB available memory on the node where the printing process lives
------------------
     ethr =  2.96E-09,  avg # of iterations =  6.0

     negative rho (up, down):  9.786E-03 0.000E+00

     total cpu time spent up to now is      779.9 secs

     total energy              =   -3259.64025345 Ry
     estimated scf accuracy    <       0.00000400 Ry

     iteration # 20     ecut=    80.00 Ry     beta= 0.20
     Davidson diagonalization with overlap

---- Real-time Memory Report at c_bands before calling an iterative solver
           980 MiB given to the printing process from OS
             0 MiB allocation reported by mallinfo(arena+hblkhd)
         25473 MiB available memory on the node where the printing process lives
------------------
     ethr =  7.61E-10,  avg # of iterations =  5.0

     negative rho (up, down):  9.788E-03 0.000E+00

     total cpu time spent up to now is      816.6 secs

     total energy              =   -3259.64025382 Ry
     estimated scf accuracy    <       0.00000174 Ry

     iteration # 21     ecut=    80.00 Ry     beta= 0.20
     Davidson diagonalization with overlap

---- Real-time Memory Report at c_bands before calling an iterative solver
           980 MiB given to the printing process from OS
             0 MiB allocation reported by mallinfo(arena+hblkhd)
         25471 MiB available memory on the node where the printing process lives
------------------
     ethr =  3.31E-10,  avg # of iterations =  5.0

     negative rho (up, down):  9.792E-03 0.000E+00

     total cpu time spent up to now is      851.2 secs

     End of self-consistent calculation

          k = 0.0000 0.0000 0.0000 (245841 PWs)   bands (ev):

   -59.0752 -59.0630 -59.0513 -59.0445 -58.8975 -58.8763 -58.8632 -58.8627
   -35.6108 -35.6035 -35.5992 -35.5889 -35.3764 -35.3657 -35.3465 -35.3375
   -35.3373 -35.3328 -35.3322 -35.3302 -35.2176 -35.2157 -35.2136 -35.2113
   -35.1817 -35.1694 -35.1448 -35.1414 -35.1033 -35.0971 -35.0916 -35.0858
   -24.0638 -24.0282 -23.9704 -23.9658 -23.9440 -23.9388 -23.9248 -23.9241
   -23.6346 -23.6008 -21.7541 -21.7238 -21.6596 -21.6501 -21.6404 -21.6280
   -21.5997 -21.5887 -21.3579 -21.3426 -21.3158 -21.2923 -21.2118 -21.1800
   -20.0237 -20.0147 -19.9488 -19.9331 -19.0653 -19.0592 -19.0338 -19.0261
   -18.8832 -18.8827 -18.8747 -18.8586 -18.1081 -18.0813 -17.8951 -17.8770
   -17.7752 -17.7464 -16.0084 -15.9813 -15.8906 -15.8599 -15.6262 -15.6026
   -15.2447 -15.2151 -14.9918 -14.9747 -14.8895 -14.8586 -13.4393 -13.4254
   -13.3309 -13.2841 -12.6379 -12.6145 -12.0056 -11.9903 -11.8879 -11.8621
   -11.6802 -11.6528 -11.4041 -11.2683 -11.2178 -11.1417 -11.0026 -10.9222
   -10.8044 -10.7802 -10.6975 -10.6796  -9.9727  -9.9464  -9.8483  -9.8224
    -9.7901  -9.7273  -9.6437  -9.5903  -9.5684  -9.4157  -9.3887  -9.3632
    -9.2988  -9.2156  -9.1861  -9.0917  -9.0558  -9.0330  -8.9619  -8.9547
    -8.9020  -8.8645  -8.8348  -8.7858  -8.6227  -8.5673  -8.5469  -8.5201
    -8.3800  -8.3129  -8.2942  -8.2299  -8.2261  -8.1812  -8.0118  -7.9899
    -7.9791  -7.9586  -7.9553  -7.9172  -7.8704  -7.8481  -7.7010  -7.6442
    -7.6190  -7.5801  -7.4079  -7.3804  -7.3131  -7.2969  -7.2208  -7.2164
    -7.1994  -7.1781  -7.0786  -7.0554  -6.9874  -6.9545  -6.7136  -6.6360
    -6.4876  -6.4592  -6.4507  -6.3561  -6.3161  -6.3011  -6.2427  -6.2176
    -6.1666  -6.1254  -5.9697  -5.9339  -5.8953  -5.8789  -5.8436  -5.8131
    -5.7320  -5.6703  -5.6275  -5.5433  -5.5311  -5.5185  -5.4497  -5.4413
    -5.4160  -5.4030  -5.3653  -5.3313  -5.3148  -5.2926  -5.2651  -5.1938
    -5.1802  -5.1497  -5.1354  -5.0970  -5.0110  -4.9710  -4.9380  -4.9109
    -4.8993  -4.8678  -4.7992  -4.7554  -4.7231  -4.7132  -4.6775  -4.6274
    -4.5769  -4.5323  -4.5206  -4.5004  -4.4786  -4.4461  -4.3922  -4.3500
    -4.3141  -4.2768  -4.2586  -4.2534  -4.2237  -4.2141  -4.1935  -4.1304
    -4.0964  -4.0808  -4.0593  -3.9976  -3.9808  -3.9748  -3.9510  -3.9107
    -3.8858  -3.8638  -3.8601  -3.8167  -3.7223  -3.6907  -3.6091  -3.5837
    -3.3881  -3.3441  -3.2675  -3.2573  -3.2467  -3.2415  -3.2257  -3.1612
    -3.1588  -3.1271  -1.9890  -1.9651  -1.9038  -1.8855  -0.2746   0.0215
     0.0993   0.1379   0.1817   0.2184   0.2855   0.3128   0.3282   0.3854
     0.4640   0.5465   0.5746   0.6115   0.6351   0.6438   0.7207   0.8711
     0.9249   0.9795   1.0060   1.0965   1.2049   1.2878   1.3396   1.3445
     1.4520   1.5099   1.5310   1.5660   1.9727   2.0073   2.1226   2.1358
     2.1576   2.2249   2.2642   2.2785   2.2984   2.3698   2.4091   2.4287
     2.4882   2.5597   2.5869   2.6397   2.6617   2.7212   2.7520   2.8817
     2.9719   2.9873   3.0304   3.0426

     occupation numbers 
     1.0000   1.0000   1.0000   1.0000   1.0000   1.0000   1.0000   1.0000
     1.0000   1.0000   1.0000   1.0000   1.0000   1.0000   1.0000   1.0000
     1.0000   1.0000   1.0000   1.0000   1.0000   1.0000   1.0000   1.0000
     1.0000   1.0000   1.0000   1.0000   1.0000   1.0000   1.0000   1.0000
     1.0000   1.0000   1.0000   1.0000   1.0000   1.0000   1.0000   1.0000
     1.0000   1.0000   1.0000   1.0000   1.0000   1.0000   1.0000   1.0000
     1.0000   1.0000   1.0000   1.0000   1.0000   1.0000   1.0000   1.0000
     1.0000   1.0000   1.0000   1.0000   1.0000   1.0000   1.0000   1.0000
     1.0000   1.0000   1.0000   1.0000   1.0000   1.0000   1.0000   1.0000
     1.0000   1.0000   1.0000   1.0000   1.0000   1.0000   1.0000   1.0000
     1.0000   1.0000   1.0000   1.0000   1.0000   1.0000   1.0000   1.0000
     1.0000   1.0000   1.0000   1.0000   1.0000   1.0000   1.0000   1.0000
     1.0000   1.0000   1.0000   1.0000   1.0000   1.0000   1.0000   1.0000
     1.0000   1.0000   1.0000   1.0000   1.0000   1.0000   1.0000   1.0000
     1.0000   1.0000   1.0000   1.0000   1.0000   1.0000   1.0000   1.0000
     1.0000   1.0000   1.0000   1.0000   1.0000   1.0000   1.0000   1.0000
     1.0000   1.0000   1.0000   1.0000   1.0000   1.0000   1.0000   1.0000
     1.0000   1.0000   1.0000   1.0000   1.0000   1.0000   1.0000   1.0000
     1.0000   1.0000   1.0000   1.0000   1.0000   1.0000   1.0000   1.0000
     1.0000   1.0000   1.0000   1.0000   1.0000   1.0000   1.0000   1.0000
     1.0000   1.0000   1.0000   1.0000   1.0000   1.0000   1.0000   1.0000
     1.0000   1.0000   1.0000   1.0000   1.0000   1.0000   1.0000   1.0000
     1.0000   1.0000   1.0000   1.0000   1.0000   1.0000   1.0000   1.0000
     1.0000   1.0000   1.0000   1.0000   1.0000   1.0000   1.0000   1.0000
     1.0000   1.0000   1.0000   1.0000   1.0000   1.0000   1.0000   1.0000
     1.0000   1.0000   1.0000   1.0000   1.0000   1.0000   1.0000   1.0000
     1.0000   1.0000   1.0000   1.0000   1.0000   1.0000   1.0000   1.0000
     1.0000   1.0000   1.0000   1.0000   1.0000   1.0000   1.0000   1.0000
     1.0000   1.0000   1.0000   1.0000   1.0000   1.0000   1.0000   1.0000
     1.0000   1.0000   1.0000   1.0000   1.0000   1.0000   1.0000   1.0000
     1.0000   1.0000   1.0000   1.0000   1.0000   1.0000   1.0000   1.0000
     1.0000   1.0000   1.0000   1.0000   1.0000   1.0000   1.0000   1.0000
     1.0000   1.0000   0.9989   0.9987   0.9980   0.9978   0.3077   0.1318
     0.1003   0.0869   0.0734   0.0634   0.0478   0.0424   0.0396   0.0304
     0.0208   0.0136   0.0117   0.0095   0.0083   0.0079   0.0051   0.0020
     0.0014   0.0009   0.0008   0.0004   0.0002   0.0001   0.0001   0.0001
     0.0000   0.0000   0.0000   0.0000   0.0000   0.0000   0.0000   0.0000
     0.0000   0.0000   0.0000   0.0000   0.0000   0.0000   0.0000   0.0000
     0.0000   0.0000   0.0000   0.0000   0.0000   0.0000   0.0000   0.0000
     0.0000   0.0000   0.0000   0.0000

     the Fermi energy is    -0.5162 ev

!    total energy              =   -3259.64025383 Ry
     estimated scf accuracy    <       0.00000072 Ry
     smearing contrib. (-TS)   =      -0.12359759 Ry
     internal energy E=F+TS    =   -3259.51665625 Ry

     The total energy is F=E-TS. E is the sum of the following terms:
     one-electron contribution =   -7234.62584336 Ry
     hartree contribution      =    3721.49683972 Ry
     xc contribution           =    -640.36826392 Ry
     ewald contribution        =    1482.41533994 Ry
     DFT-D3 Dispersion         =      -0.30970022 Ry
     one-center paw contrib.   =    -588.12502840 Ry
      -> PAW hartree energy AE =       0.00000000 Ry
      -> PAW hartree energy PS =       0.00000000 Ry
      -> PAW xc energy AE      =       0.00000000 Ry
      -> PAW xc energy PS      =       0.00000000 Ry
      -> total E_H with PAW    =    3721.49683972 Ry
      -> total E_XC with PAW   =    -640.36826392 Ry

     convergence has been achieved in  21 iterations

     negative rho (up, down):  9.792E-03 0.000E+00

     Forces acting on atoms (cartesian axes, Ry/au):

     atom    1 type  1   force =     0.00064492    0.00012139    0.00001865
     atom    2 type  1   force =     0.00044069    0.00006897    0.00044973
     atom    3 type  1   force =    -0.00034614   -0.00014712   -0.00000302
     atom    4 type  1   force =    -0.00036403    0.00025677    0.00013629
     atom    5 type  1   force =     0.00046692    0.00021379   -0.00011197
     atom    6 type  1   force =    -0.00008471    0.00011894   -0.00048240
     atom    7 type  1   force =     0.00004254    0.00020914   -0.00004648
     atom    8 type  1   force =     0.00003628   -0.00004586   -0.00014612
     atom    9 type  4   force =    -0.00006120   -0.00029673   -0.00001371
     atom   10 type  4   force =    -0.00001508   -0.00008974    0.00012314
     atom   11 type  4   force =    -0.00032509   -0.00002079    0.00007185
     atom   12 type  4   force =    -0.00058179    0.00012033    0.00004685
     atom   13 type  4   force =     0.00030049    0.00010931   -0.00007849
     atom   14 type  4   force =     0.00001866    0.00018626    0.00032886
     atom   15 type  4   force =    -0.00005804   -0.00014883   -0.00000271
     atom   16 type  4   force =    -0.00023173   -0.00001581    0.00038436
     atom   17 type  4   force =    -0.00015074   -0.00006080    0.00030394
     atom   18 type  4   force =    -0.00005061    0.00001420    0.00019286
     atom   19 type  4   force =    -0.00013373    0.00008781   -0.00008344
     atom   20 type  4   force =     0.00022437   -0.00009441    0.00004183
     atom   21 type  4   force =    -0.00001517   -0.00070950   -0.00034563
     atom   22 type  4   force =    -0.00086830    0.00057346    0.00025132
     atom   23 type  4   force =     0.00006568   -0.00058580   -0.00010556
     atom   24 type  4   force =    -0.00017835    0.00013749    0.00005311
     atom   25 type  4   force =    -0.00001483   -0.00025635    0.00036513
     atom   26 type  4   force =     0.00015319    0.00020655    0.00030422
     atom   27 type  4   force =    -0.00013858    0.00002947    0.00004810
     atom   28 type  4   force =     0.00000901   -0.00005367    0.00036922
     atom   29 type  4   force =     0.00007084    0.00025349    0.00022780
     atom   30 type  4   force =     0.00023665   -0.00016489   -0.00027242
     atom   31 type  4   force =    -0.00026836    0.00018419    0.00027683
     atom   32 type  4   force =    -0.00051529    0.00014206   -0.00004156
     atom   33 type  4   force =     0.00040773    0.00042809   -0.00036013
     atom   34 type  4   force =     0.00005160    0.00001458   -0.00010196
     atom   35 type  4   force =    -0.00018008   -0.00059056   -0.00009816
     atom   36 type  4   force =    -0.00004429   -0.00005454   -0.00003233
     atom   37 type  4   force =    -0.00017782    0.00012761    0.00013515
     atom   38 type  4   force =     0.00009564   -0.00018118   -0.00004027
     atom   39 type  4   force =    -0.00003307    0.00002583    0.00022685
     atom   40 type  4   force =     0.00067750    0.00001209    0.00019452
     atom   41 type  4   force =    -0.00018746   -0.00001539   -0.00019193
     atom   42 type  4   force =     0.00004314    0.00004998   -0.00008474
     atom   43 type  3   force =    -0.00002854   -0.00038048    0.00038144
     atom   44 type  3   force =     0.00024576   -0.00008305   -0.00005321
     atom   45 type  3   force =     0.00027749   -0.00022113   -0.00027822
     atom   46 type  3   force =    -0.00013126   -0.00014946    0.00011142
     atom   47 type  3   force =    -0.00021150    0.00003183    0.00041679
     atom   48 type  3   force =    -0.00001716   -0.00001907   -0.00016377
     atom   49 type  3   force =    -0.00021053   -0.00024795    0.00007120
     atom   50 type  3   force =     0.00006894   -0.00016363   -0.00001091
     atom   51 type  3   force =     0.00022792    0.00007876    0.00032764
     atom   52 type  3   force =    -0.00021015   -0.00007105   -0.00025616
     atom   53 type  3   force =     0.00017374    0.00001878   -0.00024867
     atom   54 type  3   force =     0.00014353   -0.00022360    0.00024506
     atom   55 type  3   force =    -0.00034222    0.00018368   -0.00017207
     atom   56 type  3   force =    -0.00001928   -0.00015929   -0.00022781
     atom   57 type  3   force =    -0.00023335    0.00005953   -0.00008209
     atom   58 type  3   force =    -0.00022178   -0.00022212   -0.00000124
     atom   59 type  3   force =     0.00015124    0.00038746   -0.00003303
     atom   60 type  3   force =     0.00021129   -0.00004981   -0.00004741
     atom   61 type  3   force =     0.00002863    0.00016447   -0.00012867
     atom   62 type  3   force =     0.00012722    0.00012120    0.00006137
     atom   63 type  3   force =     0.00031887    0.00034057    0.00009125
     atom   64 type  3   force =     0.00032191   -0.00006967    0.00031545
     atom   65 type  3   force =    -0.00013672    0.00004506   -0.00004282
     atom   66 type  3   force =     0.00003128   -0.00027665    0.00026102
     atom   67 type  3   force =    -0.00023383    0.00015300   -0.00001973
     atom   68 type  3   force =     0.00000172    0.00019852    0.00002140
     atom   69 type  3   force =    -0.00006855    0.00012234   -0.00021422
     atom   70 type  3   force =     0.00002517   -0.00014385   -0.00016954
     atom   71 type  3   force =    -0.00014414    0.00009599    0.00010484
     atom   72 type  3   force =     0.00007543   -0.00005208   -0.00008197
     atom   73 type  3   force =     0.00019552   -0.00018424    0.00030005
     atom   74 type  3   force =     0.00003079    0.00005365   -0.00026585
     atom   75 type  3   force =    -0.00021699    0.00016372   -0.00015251
     atom   76 type  3   force =     0.00037219    0.00028089   -0.00003309
     atom   77 type  3   force =    -0.00019065   -0.00012463    0.00007170
     atom   78 type  3   force =    -0.00034301   -0.00009999   -0.00003947
     atom   79 type  3   force =    -0.00001272   -0.00048939   -0.00001657
     atom   80 type  3   force =    -0.00023960   -0.00002930   -0.00007720
     atom   81 type  3   force =     0.00013493   -0.00000963   -0.00000291
     atom   82 type  3   force =     0.00011254    0.00025537    0.00006178
     atom   83 type  3   force =    -0.00008623    0.00032824   -0.00011839
     atom   84 type  3   force =     0.00005156   -0.00010010    0.00005195
     atom   85 type  3   force =    -0.00021036    0.00035995   -0.00037796
     atom   86 type  3   force =    -0.00006884    0.00013983    0.00032582
     atom   87 type  3   force =    -0.00020195   -0.00014529    0.00001150
     atom   88 type  3   force =     0.00007448    0.00015899   -0.00009518
     atom   89 type  2   force =    -0.00021012    0.00029900    0.00056571
     atom   90 type  2   force =     0.00021326    0.00001422   -0.00060514
     atom   91 type  2   force =     0.00010552   -0.00029402    0.00040728
     atom   92 type  2   force =     0.00001000    0.00001316   -0.00027176
     atom   93 type  5   force =    -0.00000525   -0.00029341    0.00020950
     atom   94 type  5   force =     0.00021444   -0.00006171    0.00065573
     atom   95 type  5   force =     0.00005807    0.00008307   -0.00004909
     atom   96 type  5   force =    -0.00063884   -0.00039158    0.00007882
     atom   97 type  5   force =     0.00024707    0.00025038    0.00008197
     atom   98 type  5   force =    -0.00024583   -0.00013623    0.00019839
     atom   99 type  5   force =     0.00005742    0.00018507    0.00050641
     atom  100 type  5   force =     0.00008059   -0.00014580   -0.00048434
     atom  101 type  5   force =     0.00041916    0.00013973    0.00003757
     atom  102 type  5   force =     0.00027781    0.00017014   -0.00039651
     atom  103 type  5   force =     0.00001717    0.00007836    0.00004665
     atom  104 type  5   force =    -0.00002196    0.00007173   -0.00065305
     atom  105 type  5   force =     0.00070531   -0.00012302   -0.00017004
     atom  106 type  5   force =    -0.00024427    0.00026167   -0.00052308
     atom  107 type  5   force =     0.00035080   -0.00022044   -0.00013210
     atom  108 type  5   force =     0.00016668    0.00025524    0.00014153
     atom  109 type  5   force =    -0.00014525   -0.00034225    0.00026696
     atom  110 type  5   force =    -0.00006290   -0.00028173   -0.00031293
     atom  111 type  5   force =    -0.00035981    0.00003796   -0.00038069
     atom  112 type  5   force =    -0.00011856    0.00000020   -0.00053807
     atom  113 type  5   force =    -0.00000618    0.00034655    0.00035729
     atom  114 type  5   force =     0.00001014   -0.00035078   -0.00022240
     atom  115 type  5   force =    -0.00029701    0.00012984   -0.00005834
     atom  116 type  5   force =    -0.00020586    0.00002985   -0.00008862
     atom  117 type  5   force =     0.00028989   -0.00022009    0.00059128
     atom  118 type  5   force =     0.00000108    0.00023424   -0.00009862
     atom  119 type  5   force =    -0.00004347    0.00001149   -0.00023049
     atom  120 type  5   force =     0.00008811    0.00009229   -0.00027500
     atom  121 type  5   force =    -0.00058722   -0.00026998   -0.00023756
     atom  122 type  5   force =     0.00036816    0.00010071   -0.00015272
     atom  123 type  5   force =     0.00077735   -0.00068755    0.00017067
     atom  124 type  5   force =     0.00015038    0.00082746   -0.00016378
     The non-local contrib.  to forces
     atom    1 type  1   force =     0.03992915   -0.04104530   -0.04599461
     atom    2 type  1   force =    -0.05268079    0.02022941    0.04100366
     atom    3 type  1   force =     0.02081646   -0.01486662    0.03788375
     atom    4 type  1   force =    -0.02184673    0.01368651   -0.03820154
     atom    5 type  1   force =     0.03887433   -0.04009788    0.04799189
     atom    6 type  1   force =    -0.05092278    0.01898397   -0.04911027
     atom    7 type  1   force =    -0.03001523    0.01054922    0.03898845
     atom    8 type  1   force =     0.02344919   -0.02472557   -0.03637221
     atom    9 type  4   force =    -0.04255526    0.05604814   -0.03368709
     atom   10 type  4   force =    -0.07136845    0.01361980   -0.03023706
     atom   11 type  4   force =     0.06996539   -0.01446618    0.03139107
     atom   12 type  4   force =    -0.00701373    0.04314869    0.06550314
     atom   13 type  4   force =     0.00838527   -0.04409425   -0.06346756
     atom   14 type  4   force =    -0.04346711   -0.00986307    0.06346767
     atom   15 type  4   force =     0.04196245    0.01098899   -0.06587113
     atom   16 type  4   force =    -0.00352800   -0.03862924    0.06788879
     atom   17 type  4   force =    -0.03507148   -0.01900422   -0.06779420
     atom   18 type  4   force =    -0.07402389    0.00842588    0.02422821
     atom   19 type  4   force =     0.07388082   -0.00832725   -0.02443954
     atom   20 type  4   force =     0.03798357   -0.06409661   -0.02476579
     atom   21 type  4   force =     0.01136750    0.10634183    0.00569327
     atom   22 type  4   force =     0.09331713    0.05173795   -0.00774528
     atom   23 type  4   force =     0.06129012   -0.04388253    0.02219989
     atom   24 type  4   force =    -0.05814989    0.04695057   -0.02040122
     atom   25 type  4   force =     0.00589734   -0.00756668   -0.07729443
     atom   26 type  4   force =    -0.00826276    0.00658373    0.07819980
     atom   27 type  4   force =    -0.05935542    0.04401888    0.02616693
     atom   28 type  4   force =     0.00993301   -0.01098127    0.07715754
     atom   29 type  4   force =     0.01058595    0.09971215   -0.00502652
     atom   30 type  4   force =     0.02396952   -0.05534598   -0.07913949
     atom   31 type  4   force =    -0.04076628   -0.06129911    0.07856386
     atom   32 type  4   force =    -0.04393242   -0.06326696   -0.07537873
     atom   33 type  4   force =    -0.06063242    0.00396909    0.07880312
     atom   34 type  4   force =     0.08801423    0.04784585    0.00406630
     atom   35 type  4   force =     0.01295738   -0.00428975   -0.09880769
     atom   36 type  4   force =     0.07388443   -0.02814657    0.06154645
     atom   37 type  4   force =    -0.06744143    0.06853060   -0.02617664
     atom   38 type  4   force =     0.06066240   -0.03913211   -0.06950164
     atom   39 type  4   force =     0.03011666    0.04532557   -0.05638251
     atom   40 type  4   force =     0.04286383   -0.05645170    0.03390486
     atom   41 type  4   force =     0.03019735    0.04646499    0.05525319
     atom   42 type  4   force =    -0.03852854    0.06293036    0.02558078
     atom   43 type  3   force =    -0.22131765    0.11932706   -0.19647803
     atom   44 type  3   force =     0.17780562   -0.14487678    0.18979516
     atom   45 type  3   force =    -0.20630616    0.11947971    0.21020896
     atom   46 type  3   force =     0.16951774   -0.14977021   -0.19016755
     atom   47 type  3   force =    -0.10020569    0.05459676    0.00260381
     atom   48 type  3   force =     0.07555632   -0.05433145    0.10216202
     atom   49 type  3   force =     0.00067519    0.01055543    0.11424440
     atom   50 type  3   force =     0.09345916   -0.05967216   -0.07840875
     atom   51 type  3   force =    -0.20586333    0.17429687    0.07046833
     atom   52 type  3   force =    -0.01919006    0.02789198    0.06626382
     atom   53 type  3   force =     0.02676534   -0.01639753    0.26732232
     atom   54 type  3   force =     0.04799636   -0.03999788    0.05044025
     atom   55 type  3   force =    -0.03783337    0.04094712    0.02898557
     atom   56 type  3   force =     0.01818843    0.00486164    0.07640737
     atom   57 type  3   force =    -0.06619901    0.03484143    0.03633630
     atom   58 type  3   force =    -0.03453929    0.01041086   -0.06241613
     atom   59 type  3   force =     0.05650881    0.08219706   -0.09878359
     atom   60 type  3   force =     0.00659224    0.00419513   -0.01303978
     atom   61 type  3   force =    -0.00069405    0.00149552    0.01435175
     atom   62 type  3   force =     0.05505771    0.08567422    0.09752835
     atom   63 type  3   force =    -0.00349330    0.10934064    0.00852645
     atom   64 type  3   force =    -0.00815031   -0.07596528    0.07824000
     atom   65 type  3   force =    -0.07131044   -0.03662907   -0.08057288
     atom   66 type  3   force =     0.10213412    0.03810216   -0.01386421
     atom   67 type  3   force =     0.13686109    0.20898785   -0.22799682
     atom   68 type  3   force =     0.14432951    0.21530837    0.22162023
     atom   69 type  3   force =    -0.01224798    0.28583759   -0.00171361
     atom   70 type  3   force =    -0.00634870   -0.37301106   -0.00036913
     atom   71 type  3   force =    -0.34128840   -0.14876392    0.00415958
     atom   72 type  3   force =     0.26718415    0.10496381    0.01195387
     atom   73 type  3   force =     0.05344072   -0.01356685   -0.01200473
     atom   74 type  3   force =    -0.00214256    0.01450586   -0.01429480
     atom   75 type  3   force =     0.01334676   -0.00043900    0.01546917
     atom   76 type  3   force =    -0.03707574    0.03997021    0.01434477
     atom   77 type  3   force =    -0.00071363   -0.07129349   -0.01803812
     atom   78 type  3   force =     0.00295864   -0.04476548    0.07464675
     atom   79 type  3   force =    -0.04401784   -0.01653791   -0.07830458
     atom   80 type  3   force =    -0.06324711   -0.02981989    0.01440797
     atom   81 type  3   force =    -0.00831371    0.01404320    0.01559576
     atom   82 type  3   force =     0.04738341   -0.01634460    0.01755104
     atom   83 type  3   force =    -0.02951233    0.03721515   -0.01918183
     atom   84 type  3   force =     0.02277330    0.00111720   -0.01467002
     atom   85 type  3   force =    -0.15139872   -0.05762773   -0.22751977
     atom   86 type  3   force =     0.01132526    0.01150765   -0.07562364
     atom   87 type  3   force =     0.00806174    0.02097933    0.06740822
     atom   88 type  3   force =     0.00239370   -0.15973013    0.22554024
     atom   89 type  2   force =    -0.37262542    0.21157851   -0.18350141
     atom   90 type  2   force =     0.35470988   -0.31455950    0.19483293
     atom   91 type  2   force =     0.03323995   -0.39713498    0.05952707
     atom   92 type  2   force =    -0.11037382   -0.27560872   -0.25906277
     atom   93 type  5   force =     1.47550933   -0.46729147   -1.03095182
     atom   94 type  5   force =    -0.89234093    1.28965957    1.19455094
     atom   95 type  5   force =    -0.91892405    0.09182201   -1.64647000
     atom   96 type  5   force =     0.50952169   -0.99022086    1.65881039
     atom   97 type  5   force =    -0.86217144    1.32073405   -1.16501023
     atom   98 type  5   force =     1.48442547   -0.42619002    1.20569450
     atom   99 type  5   force =    -1.06696017    0.21305442    1.65625101
     atom  100 type  5   force =     0.50636497   -0.99095635   -1.65053898
     atom  101 type  5   force =     0.28432832    0.88887711    0.35337815
     atom  102 type  5   force =    -0.72722808   -0.58319999    0.05983732
     atom  103 type  5   force =    -0.30453592   -0.89858053   -0.01835611
     atom  104 type  5   force =     0.71483077    0.57968432   -0.38855928
     atom  105 type  5   force =     0.32420980    0.88211161   -0.34076334
     atom  106 type  5   force =    -0.71463840   -0.61543556   -0.04554974
     atom  107 type  5   force =    -0.28400253   -0.89677372    0.02808924
     atom  108 type  5   force =     0.70359889    0.61772261    0.37138393
     atom  109 type  5   force =    -1.73793572    0.58692578    0.13609913
     atom  110 type  5   force =     1.29579638   -1.28343784   -0.23700408
     atom  111 type  5   force =    -0.02299140   -0.41386013    1.86376098
     atom  112 type  5   force =     0.00321579    0.55584125   -1.65518707
     atom  113 type  5   force =     0.53461682    0.18492000    1.66027399
     atom  114 type  5   force =    -0.32248405   -0.17209459   -1.87041396
     atom  115 type  5   force =    -1.66329789    0.72147076   -0.27410536
     atom  116 type  5   force =     1.38492128   -1.15690354    0.38854444
     atom  117 type  5   force =     0.39294534    0.08112609   -1.75864187
     atom  118 type  5   force =    -0.39115171   -0.37436761    1.82505200
     atom  119 type  5   force =    -0.14897873   -0.47997334   -1.82111054
     atom  120 type  5   force =    -0.12332268    0.40364423    1.75782956
     atom  121 type  5   force =     0.59080465    0.87058930   -0.90325482
     atom  122 type  5   force =     0.61527657    0.88623685    0.86502355
     atom  123 type  5   force =    -1.02880061   -1.02051908    0.04686906
     atom  124 type  5   force =    -0.53403630   -1.34766095   -0.05115382
     The ionic contribution  to forces
     atom    1 type  1   force =    -3.06261373    8.75906200   -1.15938606
     atom    2 type  1   force =     9.52293361   -0.84906683    1.31778861
     atom    3 type  1   force =   -11.67983906   -4.25689363  -19.54712587
     atom    4 type  1   force =    -0.96345473  -13.15004742   17.70771712
     atom    5 type  1   force =    -4.45548090    4.80128809    0.27931519
     atom    6 type  1   force =     3.57151661   -1.75572503    1.15351209
     atom    7 type  1   force =     0.02687040  -11.92799977  -19.39956161
     atom    8 type  1   force =   -11.79892225   -3.85621520   17.08098011
     atom    9 type  4   force =     2.23126994   -0.57079510    0.60000769
     atom   10 type  4   force =     2.50677105   -1.42116782    0.23431930
     atom   11 type  4   force =    -1.44853519    1.84783691   -0.34396519
     atom   12 type  4   force =     0.79456676    0.03477862   -3.08282956
     atom   13 type  4   force =     0.00347932    0.08342481    2.86177338
     atom   14 type  4   force =     0.13547494    0.06796386   -2.77224043
     atom   15 type  4   force =    -0.14904630    0.75792975    3.17827320
     atom   16 type  4   force =     0.55718042   -0.37657809   -2.83588917
     atom   17 type  4   force =    -0.49254240    0.66514621    3.05179647
     atom   18 type  4   force =     2.45198096   -1.18374784    0.13763491
     atom   19 type  4   force =    -1.66343469    1.69654566   -0.06438892
     atom   20 type  4   force =    -2.09499542    1.94202160   -0.03422985
     atom   21 type  4   force =    -0.23460728   -6.05027676   -0.12230067
     atom   22 type  4   force =    -5.57004481   -2.62357853    0.15994922
     atom   23 type  4   force =    -2.18922624    1.82147347   -2.62372691
     atom   24 type  4   force =     2.37260989   -1.74420268    2.14342794
     atom   25 type  4   force =    -1.45657340    1.44820563    2.55896514
     atom   26 type  4   force =     2.15978839   -1.23651448   -2.43763678
     atom   27 type  4   force =     2.41671216   -1.46969228   -2.58068595
     atom   28 type  4   force =    -1.99909297    1.56543711   -2.44676359
[...]
     atom   40 type  4   force =     0.00006115    0.00026557   -0.00016608
     atom   41 type  4   force =    -0.00052046   -0.00085547   -0.00023728
     atom   42 type  4   force =    -0.00022666   -0.00075746   -0.00028171
     atom   43 type  3   force =     0.00009584    0.00001989   -0.00019653
     atom   44 type  3   force =    -0.00002721    0.00008801    0.00006897
     atom   45 type  3   force =     0.00023531    0.00014396    0.00017747
     atom   46 type  3   force =    -0.00000304    0.00030366   -0.00019304
     atom   47 type  3   force =    -0.00015435    0.00002915   -0.00044931
     atom   48 type  3   force =     0.00007348   -0.00013077    0.00039063
     atom   49 type  3   force =    -0.00023158    0.00025168    0.00032626
     atom   50 type  3   force =     0.00027798   -0.00009864   -0.00029382
     atom   51 type  3   force =    -0.00015191    0.00001981   -0.00002845
     atom   52 type  3   force =     0.00011904   -0.00016756   -0.00007753
     atom   53 type  3   force =    -0.00008774    0.00003823    0.00038720
     atom   54 type  3   force =     0.00000569    0.00002838   -0.00043658
     atom   55 type  3   force =     0.00016713   -0.00011421   -0.00009148
     atom   56 type  3   force =    -0.00008697    0.00008454   -0.00002165
     atom   57 type  3   force =    -0.00010486   -0.00014447   -0.00030888
     atom   58 type  3   force =     0.00000678   -0.00020948    0.00035967
     atom   59 type  3   force =     0.00014438    0.00014896   -0.00018471
     atom   60 type  3   force =    -0.00063682   -0.00094485    0.00053697
     atom   61 type  3   force =    -0.00064603   -0.00099885   -0.00057086
     atom   62 type  3   force =     0.00009154    0.00013391    0.00018861
     atom   63 type  3   force =    -0.00008307    0.00049299   -0.00000380
     atom   64 type  3   force =    -0.00012789   -0.00039590   -0.00015803
     atom   65 type  3   force =    -0.00032398   -0.00028944    0.00012696
     atom   66 type  3   force =     0.00047978    0.00001042   -0.00014105
     atom   67 type  3   force =     0.00024181    0.00026485   -0.00014837
     atom   68 type  3   force =     0.00015714    0.00022646    0.00018033
     atom   69 type  3   force =     0.00005518    0.00060418   -0.00022674
     atom   70 type  3   force =    -0.00017584   -0.00053667   -0.00003927
     atom   71 type  3   force =    -0.00043555   -0.00041187   -0.00000192
     atom   72 type  3   force =     0.00056124    0.00018879    0.00003604
     atom   73 type  3   force =    -0.00024192    0.00022737   -0.00013393
     atom   74 type  3   force =     0.00003041   -0.00073821    0.00028101
     atom   75 type  3   force =    -0.00071313   -0.00031854   -0.00031638
     atom   76 type  3   force =     0.00029196   -0.00016020    0.00014576
     atom   77 type  3   force =    -0.00006160    0.00041600    0.00021483
     atom   78 type  3   force =    -0.00003799   -0.00006652   -0.00026202
     atom   79 type  3   force =    -0.00008925   -0.00012194    0.00020481
     atom   80 type  3   force =     0.00042623    0.00010846   -0.00025354
     atom   81 type  3   force =    -0.00005345   -0.00086115   -0.00026294
     atom   82 type  3   force =    -0.00022369    0.00025476    0.00012342
     atom   83 type  3   force =     0.00043596   -0.00005419   -0.00013267
     atom   84 type  3   force =    -0.00072692   -0.00035998    0.00029035
     atom   85 type  3   force =    -0.00015536   -0.00016771   -0.00020252
     atom   86 type  3   force =     0.00021405    0.00002651    0.00035959
     atom   87 type  3   force =     0.00008226    0.00036215   -0.00051205
     atom   88 type  3   force =    -0.00007892   -0.00017417    0.00016656
     atom   89 type  2   force =    -0.00016478   -0.00051211    0.00045711
     atom   90 type  2   force =    -0.00045829   -0.00042695   -0.00049464
     atom   91 type  2   force =    -0.00037109    0.00009296   -0.00007524
     atom   92 type  2   force =    -0.00029649    0.00010776    0.00070273
     atom   93 type  5   force =    -0.00052726    0.00021687    0.00000411
     atom   94 type  5   force =     0.00034868   -0.00040884   -0.00030226
     atom   95 type  5   force =     0.00031509    0.00035621    0.00059141
     atom   96 type  5   force =    -0.00001683    0.00052850   -0.00065961
     atom   97 type  5   force =     0.00038752   -0.00041858    0.00022225
     atom   98 type  5   force =    -0.00049638    0.00013971   -0.00009834
     atom   99 type  5   force =     0.00014926    0.00013231   -0.00063392
     atom  100 type  5   force =     0.00001822    0.00025418    0.00070050
     atom  101 type  5   force =     0.00014905   -0.00000058    0.00002236
     atom  102 type  5   force =     0.00033968    0.00038991    0.00010557
     atom  103 type  5   force =     0.00014667    0.00041999   -0.00006235
     atom  104 type  5   force =    -0.00007902    0.00013182    0.00001205
     atom  105 type  5   force =     0.00022697    0.00009690    0.00009987
     atom  106 type  5   force =     0.00029837    0.00051351   -0.00008790
     atom  107 type  5   force =     0.00051964    0.00041509    0.00008254
     atom  108 type  5   force =     0.00002723    0.00021938   -0.00010460
     atom  109 type  5   force =     0.00071938    0.00013265   -0.00023266
     atom  110 type  5   force =    -0.00016151    0.00058373    0.00031610
     atom  111 type  5   force =     0.00006304    0.00058738   -0.00043167
     atom  112 type  5   force =    -0.00024988   -0.00073950    0.00024779
     atom  113 type  5   force =    -0.00054521   -0.00059568   -0.00030004
     atom  114 type  5   force =     0.00064397    0.00019222    0.00029704
     atom  115 type  5   force =     0.00061385    0.00007761    0.00032882
     atom  116 type  5   force =    -0.00012879    0.00057358   -0.00031751
     atom  117 type  5   force =    -0.00058015   -0.00060624    0.00033113
     atom  118 type  5   force =     0.00061115    0.00023445   -0.00029779
     atom  119 type  5   force =    -0.00002402    0.00070139    0.00026397
     atom  120 type  5   force =    -0.00032617   -0.00076066   -0.00037041
     atom  121 type  5   force =     0.00018064    0.00014594   -0.00005246
     atom  122 type  5   force =     0.00007867    0.00021784    0.00009765
     atom  123 type  5   force =     0.00012807    0.00010586   -0.00010991
     atom  124 type  5   force =     0.00006371    0.00010729    0.00005397

     Total force =     0.004819     Total SCF correction =     0.001933

     DFT-D3 dispersion Force =     0.007475
     SCF correction compared to forces is large: reduce conv_thr to get better values

     BFGS Geometry Optimization
     Energy error            =      0.0E+00 Ry
     Gradient error          =      8.7E-04 Ry/Bohr

     bfgs converged in   1 scf cycles and   0 bfgs steps
     (criteria: energy <  1.0E-04 Ry, force <  1.0E-03 Ry/Bohr)

     End of BFGS Geometry Optimization

     Final energy             =   -3259.6402538321 Ry
Begin final coordinates

ATOMIC_POSITIONS (angstrom)
Ti              -2.8674028313        2.1877697981       11.2218949684
Ti               7.8440014210        5.0858705665        1.8600544332
Ti               1.2209262845       -1.6933336221        9.3434342004
Ti               2.6982843219        7.4763577815        3.6885572884
Ti               1.7357051304        9.1185889284        1.7589367271
Ti               3.0381082343       -1.9968621795       11.3307486237
Ti              -1.9534796861        0.4852015267        9.3014686654
Ti               5.9231897539        5.4046393161        3.7529544835
H                3.6914817674        1.6166149000        8.6891179164
H               -0.2154156665       -4.2579906289        6.5070219483
H                4.6897903777       10.8066474964        4.6409365982
H               -2.1573316904        6.1215382602       11.0159006380
H                8.5287844280        1.1541495266        2.1636937046
H               -6.7822473839        1.3261647838       10.8693180524
H               11.2151778613        7.2264361754        2.0618946293
H                4.3016629349       -6.0367070317       10.9776579369
H               -2.4000005236        8.7029412796        2.0544112952
H                4.6606869689        3.0940270605        6.9062822507
H               -0.0604720384        3.6981358289        8.3775241220
H               -3.7198772390       -1.7639811361        6.3312796799
H                2.1948087465        7.4628208210       -0.1165150932
H                5.9959881613        4.8141944307        0.1301098538
H                3.7629254931       -2.4322448675        5.8333567557
H                0.9901352177        9.3506362172        7.2716867463
H               -5.8625851202        4.0978651031        8.9686803886
H               10.6623649486        3.0019213748        4.1613421500
H               -3.6931881316        2.4320447429        5.6454646189
H               -1.2271817349       11.2083937827        4.0856597337
H                1.9232908105       12.2171453120        2.5629545370
H                8.3280154294       -0.8627424576        3.3559899694
H                4.8118268579        7.1702971477        2.3860294365
H                0.1705742884        0.1838392156       10.5891500012
H                7.3778546041       -0.2329407125        9.7776248701
H                5.8683790444       -0.6860017937       10.5201207546
H                8.0971543760        4.7743452598        8.6406796248
H                7.4666217616        5.0285968768        7.0272393980
H                6.8511386683       -4.9591263086        9.5584247599
H                5.5538120075       -3.8748877212       10.0170958842
H                1.3434580889        1.9454113845        9.4114401332
H                0.9054700711        5.1781832863        6.5929320473
H                5.9566711719        8.8195658070        3.8805660564
H               -7.7557595204        8.8666839370        4.7354317825
C                8.5258512719        4.4273080221        4.7119046510
C               -3.7952184348        2.5515674961        8.3820290098
C                3.8336671718       -2.6482762275        8.4694239907
C                0.8405064964        9.5425984971        4.6047513682
C                9.4443823683        3.8595210313        5.7055852221
C               -4.6955925701        3.2114386893        7.4036738051
C                4.7964620487       -3.2353707183        7.5325683766
C               -0.0289178881       10.2194797507        5.5984035792
C                9.2509288407        4.0185203159        7.1146414302
C               -4.5168756734        3.0397850024        6.0148889055
C                5.8941119047       -4.0408597761        7.9901879061
C               -1.0815342178       11.0510145757        5.1526599566
C                0.1757676934       10.0047988758        6.9570108768
C                4.6086136342       -3.0443864180        6.1462956932
C               10.5438515654        3.1018923992        5.2399367356
C               -5.7518359424        3.9793542324        7.8903061849
C                2.8421707137        4.2256447624        6.6501890352
C                1.7623792922        2.5791717027        8.6309271358
C                6.3814824754        9.4714227775        4.6432952254
C               -1.9103735117       -2.9235782207        6.5221897616
C                8.7297435155        1.2249133714        0.0343823661
C                2.2604876563       13.0754261390        0.0547106590
C               11.1834903536        7.0032781449       -0.0746000357
C               -2.1550418890        8.5959467957       -0.0935678004
C                3.4211547359        5.1090440825        5.6118602404
C               -1.3072925998       -2.0098885896        7.5199483364
C                8.5865343252        2.7003765301        0.0118010320
C                2.1975125219       11.6253483865        0.0108907159
C                9.8684777627        6.3879406381       -0.0293987854
C               -0.7441725383        9.0480767770       -0.0622050746
C                1.5065715319        4.3970171809        7.0581748184
C                3.0886507515        2.3977970313        8.2245284648
C                5.6698871090       10.5973754921        5.0710464077
C               -1.2034517966       -4.0613709576        6.0921024691
C                8.6484154963        0.5633150116        1.2545147456
C               -2.2568012878        6.7121904672       11.9257505305
C               11.7909661099        7.3742161410        1.1494590522
C               -7.3686046501        1.1994324896       11.7808028116
C                7.6446687137        9.1883711001        5.1733107248
C               -3.1848565695       -2.6509430073        5.9925266620
C                3.6292380243        3.2173060449        7.2362999293
C                0.9711484190        3.5739059003        8.0465150152
C                7.2692881349        0.1179844894       11.7930699802
C               -2.8739773433        8.4392388850        1.1113492480
C                4.2442038011       -6.5677672403       11.9260941396
C                2.1376117685       13.8123002862        1.2802309594
N                2.0414708720       13.2226039301        2.5038055587
N                6.7516635010       -0.1898426881       10.5694451917
N                8.2234593070        4.7437045443        7.6390736852
N                6.1685076864       -4.2585209340        9.3059602323
O                7.3604906550        4.8588339583        5.0934775092
O               -3.0261029985        1.5988109466        7.9775506515
O                4.1642518076       -2.5838491882        9.7082859507
O                0.7757957982        9.9388037028        3.3952498245
O                1.5968321293        8.5745283392        4.9970024120
O                2.6820375888       -2.2418949151        8.0459632106
O                8.8883539146        4.4496374603        3.4869108992
O               -3.8541074933        2.9405778228        9.5945391550
O                6.2091866966        4.1744663458        2.5553716240
O               -1.3731981077        2.0214879912       10.1311348805
O                7.1419308030        6.4673091458        2.9074740160
O               -3.1548773568        0.3282882326       10.5500973534
O                1.4589704429       -2.8993056349       10.5894862383
O                3.2495289897        9.0072234272        2.8603136798
O                2.4015372994       -0.6175755680       10.2570176991
O                1.4958434895        7.2868811110        2.4335504275
O                4.6354805005        4.9186279024        5.2514964310
O               -1.9856923786       -1.0003663391        7.9200279321
O                3.8539269659       -3.7901044220       11.9701376684
O                2.1192715045       10.9539420116        1.1085161291
O                4.6292806440       -0.9847468779       11.9698040382
O               -0.1843114536        9.1664944538        1.0792365775
O               -0.1264372629       -2.2633166121        7.9457068743
O                2.6898525574        6.0332708613        5.1153062819
O                9.3239498851        6.1348226526        1.1085448332
O               -4.7927727898        2.2087478048       11.9234435509
O                8.5482713605        3.3163652520        1.1278994054
O               -2.4380561742        3.9552270576       11.9686797159
O                4.4431196218        6.6173785071        3.0980941812
O               -0.2248448544       -0.3875409746        9.9067782702
O                6.8433987121        5.2901495041        0.0629907435
O                2.3032006078        8.4295485285       -0.0667490475
End final coordinates



     Writing all to output data dir ./tmp/MIL125_NH2_convtest.save/ :
     XML data file, charge density, pseudopotentials, collected wavefunctions

     init_run     :     20.93s CPU     21.71s WALL (       1 calls)
     electrons    :    804.96s CPU    829.73s WALL (       1 calls)
     forces       :     16.17s CPU     16.62s WALL (       1 calls)
     force_dftd3  :      0.79s CPU      0.81s WALL (       1 calls)

     Called by init_run:
     wfcinit      :     14.96s CPU     15.12s WALL (       1 calls)
     wfcinit:atom :      0.03s CPU      0.05s WALL (       1 calls)
     wfcinit:wfcr :     14.72s CPU     14.82s WALL (       1 calls)
     potinit      :      1.12s CPU      1.23s WALL (       1 calls)
     hinit0       :      0.66s CPU      0.70s WALL (       1 calls)

     Called by electrons:
     c_bands      :    612.47s CPU    616.25s WALL (      21 calls)
     sum_band     :    139.02s CPU    148.86s WALL (      21 calls)
     v_of_rho     :     12.24s CPU     14.01s WALL (      22 calls)
     v_h          :      0.72s CPU      1.05s WALL (      22 calls)
     v_xc         :     12.10s CPU     13.62s WALL (      23 calls)
     newd         :     36.96s CPU     46.48s WALL (      22 calls)
     PAW_pot      :      2.47s CPU      2.47s WALL (      22 calls)
     mix_rho      :      1.93s CPU      2.00s WALL (      21 calls)
     energy_dftd3 :      0.58s CPU      0.58s WALL (       1 calls)

     Called by c_bands:
     init_us_2    :      3.18s CPU      3.24s WALL (      43 calls)
     cegterg      :    609.15s CPU    612.91s WALL (      21 calls)

     Called by sum_band:
     sum_band:wei :      0.00s CPU      0.00s WALL (      21 calls)
     sum_band:loo :     94.28s CPU     94.65s WALL (      21 calls)
     sum_band:buf :      0.00s CPU      0.00s WALL (      21 calls)
     sum_band:ini :      1.57s CPU      1.58s WALL (      21 calls)
     sum_band:cal :     45.19s CPU     45.30s WALL (      21 calls)
     sum_band:bec :      0.04s CPU      0.04s WALL (      21 calls)
     addusdens    :     40.76s CPU     50.07s WALL (      21 calls)
                                        0.00s GPU  (      21 calls)
     addusd:skk   :      2.77s CPU      4.88s WALL (     105 calls)
                                        0.00s GPU  (     105 calls)

     Called by *egterg:
     cdiaghg      :     15.80s CPU     15.90s WALL (     119 calls)
     cegterg:over :     51.89s CPU     52.04s WALL (      98 calls)
     cegterg:upda :     31.49s CPU     31.86s WALL (      98 calls)
     cegterg:last :     83.27s CPU     83.47s WALL (      43 calls)
     cdiaghg:chol :      0.98s CPU      0.99s WALL (     119 calls)
     cdiaghg:inve :      0.31s CPU      0.31s WALL (     119 calls)
     cdiaghg:para :      4.32s CPU      4.38s WALL (     238 calls)
     h_psi        :    348.85s CPU    350.82s WALL (     120 calls)
     s_psi        :     72.70s CPU     72.87s WALL (     120 calls)
     g_psi        :      0.47s CPU      0.47s WALL (      98 calls)

     Called by h_psi:
     h_psi:calbec :    122.71s CPU    123.01s WALL (     120 calls)
     vloc_psi     :    152.46s CPU    153.41s WALL (     120 calls)
     add_vuspsi   :     72.80s CPU     72.98s WALL (     120 calls)

     General routines
     calbec       :    173.82s CPU    174.25s WALL (     145 calls)
     fft          :     16.00s CPU     17.17s WALL (     295 calls)
     ffts         :      0.75s CPU      0.81s WALL (      43 calls)
     fftw         :    132.59s CPU    133.33s WALL (   38006 calls)
     interpolate  :      1.29s CPU      1.37s WALL (      22 calls)

     Parallel routines

     PAW routines
     PAW_pot      :      2.47s CPU      2.47s WALL (      22 calls)

     PWSCF        :  14m 3.02s CPU  14m29.80s WALL


   This run was terminated on:  16:54:19  13Apr2025            

=------------------------------------------------------------------------------=
   JOB DONE.
=------------------------------------------------------------------------------=
Note: The following floating-point exceptions are signalling: IEEE_DENORMAL
Note: The following floating-point exceptions are signalling: IEEE_DENORMAL
Note: The following floating-point exceptions are signalling: IEEE_DENORMAL
