
     Program PWSCF v.7.3.1 starts on 10Apr2025 at 12:35:56 

     This program is part of the open-source Quantum ESPRESSO suite
     for quantum simulation of materials; please cite
         "P. Giannozzi et al., J. Phys.:Condens. Matter 21 395502 (2009);
         "P. Giannozzi et al., J. Phys.:Condens. Matter 29 465901 (2017);
         "P. Giannozzi et al., J. Chem. Phys. 152 154105 (2020);
          URL http://www.quantum-espresso.org", 
     in publications or presentations arising from this work. More details at
     http://www.quantum-espresso.org/quote

     Parallel version (MPI), running on    33 processors

     MPI processes distributed on     1 nodes
     10904 MiB available memory on the printing compute node when the environment starts

     Waiting for input...
     Reading input from standard input

     Current dimensions of program PWSCF are:
     Max number of different atomic species (ntypx) = 10
     Max number of k-points (npk) =  40000
     Max angular momentum in pseudopotentials (lmaxx) =  4
     file C.pbe-n-kjpaw_psl.1.0.0.UPF: wavefunction(s)  2S 2P renormalized
     file O.pbe-n-kjpaw_psl.0.1.UPF: wavefunction(s)  2P renormalized

     R & G space division:  proc/nbgrp/npool/nimage =      33
     Subspace diagonalization in iterative solution of the eigenvalue problem:
     one sub-group per band group will be used
     custom distributed-memory algorithm (size of sub-group:  3*  3 procs)


     Parallelization info
     --------------------
     sticks:   dense  smooth     PW     G-vecs:    dense   smooth      PW
     Min         589     336     89                53397    23062    3169
     Max         590     337     90                53401    23066    3174
     Sum       19453   11103   2951              1762151   761105  104643

     Using Slab Decomposition



     bravais-lattice index     =            0
     lattice parameter (alat)  =      30.7168  a.u.
     unit-cell volume          =   22271.6335 (a.u.)^3
     number of atoms/cell      =          132
     number of atomic types    =            5
     number of electrons       =       568.00
     number of Kohn-Sham states=          284
     kinetic-energy cutoff     =      40.0000  Ry
     charge density cutoff     =     280.0000  Ry
     scf convergence threshold =      1.0E-06
     mixing beta               =       0.4000
     number of iterations used =            8  plain     mixing
     Exchange-correlation= SLA  PW   PBX  PBC
                           (   1   4   3   4   0   0   0)

     celldm(1)=  30.716808  celldm(2)=   0.000000  celldm(3)=   0.000000
     celldm(4)=   0.000000  celldm(5)=   0.000000  celldm(6)=   0.000000

     crystal axes: (cart. coord. in units of alat)
               a(1) = (   1.000000   0.000000   0.000000 )  
               a(2) = (  -0.378163   0.925739   0.000000 )  
               a(3) = (  -0.310919  -0.462870   0.830109 )  

     reciprocal axes: (cart. coord. in units 2 pi/alat)
               b(1) = (  1.000000  0.408499  0.602330 )  
               b(2) = ( -0.000000  1.080218  0.602330 )  
               b(3) = (  0.000000 -0.000000  1.204661 )  


     PseudoPot. # 1 for Ti read from file:
     /home/ys/qepseudo/SSSP_1.3.0_PBE_efficiency/ti_pbe_v1.4.uspp.F.UPF
     MD5 check sum: 88a00a6731bd790ddea75d31a80cb452
     Pseudo is Ultrasoft + core correction, Zval = 12.0
     Generated by new atomic code, or converted to UPF format
     Using radial grid of  851 points,  6 beta functions with: 
                l(1) =   0
                l(2) =   0
                l(3) =   1
                l(4) =   1
                l(5) =   2
                l(6) =   2
     Q(r) pseudized with  6 coefficients,  rinner =    1.000   1.000   1.000
                                                       1.000   1.000

     PseudoPot. # 2 for N  read from file:
     /home/ys/qepseudo/SSSP_1.3.0_PBE_efficiency/N.pbe-n-radius_5.UPF
     MD5 check sum: 16739722b17309cd8fe442a2ace49922
     Pseudo is Ultrasoft + core correction, Zval =  5.0
     Generated using "atomic" code by A. Dal Corso  v.5.1
     Using radial grid of 1085 points,  4 beta functions with: 
                l(1) =   0
                l(2) =   0
                l(3) =   1
                l(4) =   1
     Q(r) pseudized with 0 coefficients 


     PseudoPot. # 3 for C  read from file:
     /home/ys/qepseudo/SSSP_1.3.0_PBE_efficiency/C.pbe-n-kjpaw_psl.1.0.0.UPF
     MD5 check sum: 5d2aebdfa2cae82b50a7e79e9516da0f
     Pseudo is Projector augmented-wave + core cor, Zval =  4.0
     Generated using "atomic" code by A. Dal Corso  v.5.1
     Shape of augmentation charge: PSQ
     Using radial grid of 1073 points,  4 beta functions with: 
                l(1) =   0
                l(2) =   0
                l(3) =   1
                l(4) =   1
     Q(r) pseudized with 0 coefficients 


     PseudoPot. # 4 for H  read from file:
     /home/ys/qepseudo/SSSP_1.3.0_PBE_efficiency/H.pbe-rrkjus_psl.1.0.0.UPF
     MD5 check sum: f52b6d4d1c606e5624b1dc7b2218f220
     Pseudo is Ultrasoft, Zval =  1.0
     Generated using "atomic" code by A. Dal Corso  v.5.1
     Using radial grid of  929 points,  2 beta functions with: 
                l(1) =   0
                l(2) =   0
     Q(r) pseudized with 0 coefficients 


     PseudoPot. # 5 for O  read from file:
     /home/ys/qepseudo/SSSP_1.3.0_PBE_efficiency/O.pbe-n-kjpaw_psl.0.1.UPF
     MD5 check sum: 0234752ac141de4415c5fc33072bef88
     Pseudo is Projector augmented-wave + core cor, Zval =  6.0
     Generated using "atomic" code by A. Dal Corso  v.5.0.99 svn rev. 10869
     Shape of augmentation charge: BESSEL
     Using radial grid of 1095 points,  4 beta functions with: 
                l(1) =   0
                l(2) =   0
                l(3) =   1
                l(4) =   1
     Q(r) pseudized with 0 coefficients 


     atomic species   valence    mass     pseudopotential
     Ti               12.00    47.86700     Ti( 1.00)
     N                 5.00    14.00674     N ( 1.00)
     C                 4.00    12.01070     C ( 1.00)
     H                 1.00     1.00794     H ( 1.00)
     O                 6.00    15.99940     O ( 1.00)

     No symmetry found


                                    s                        frac. trans.

      isym =  1     identity                                     

 cryst.   s( 1) = (     1          0          0      )
                  (     0          1          0      )
                  (     0          0          1      )

 cart.    s( 1) = (  1.0000000  0.0000000  0.0000000 )
                  (  0.0000000  1.0000000  0.0000000 )
                  (  0.0000000  0.0000000  1.0000000 )


   Cartesian axes

     site n.     atom                  positions (alat units)
         1        Ti     tau(   1) = (  -0.1943417   0.1305430   0.7153135  )
         2        Ti     tau(   2) = (   0.5052601   0.3323264   0.1147958  )
         3        Ti     tau(   3) = (   0.0952930  -0.0640103   0.5959936  )
         4        Ti     tau(   4) = (   0.2156253   0.5268797   0.2341157  )
         5        Ti     tau(   5) = (   0.1165768   0.5934126   0.1147958  )
         6        Ti     tau(   6) = (   0.1943416  -0.1305432   0.7153135  )
         7        Ti     tau(   7) = (  -0.0952931   0.0640101   0.5959936  )
         8        Ti     tau(   8) = (   0.4062115   0.3988592   0.2341157  )
         9        H      tau(   9) = (   0.2273033   0.1012540   0.4517679  )
        10        H      tau(  10) = (  -0.0077772  -0.2487142   0.4517679  )
        11        H      tau(  11) = (   0.3186955   0.7115836   0.3783414  )
        12        H      tau(  12) = (  -0.1965246   0.3859474   0.6978820  )
        13        H      tau(  13) = (   0.5074430   0.0769219   0.1322273  )
        14        H      tau(  14) = (  -0.4316051   0.0359792   0.6978820  )
        15        H      tau(  15) = (   0.7425234   0.4268902   0.1322273  )
        16        H      tau(  16) = (   0.1965245  -0.3859476   0.6978820  )
        17        H      tau(  17) = (  -0.1206866   0.4988488   0.1322273  )
        18        H      tau(  18) = (   0.3031413   0.2141553   0.3783414  )
        19        H      tau(  19) = (   0.0077771   0.2487141   0.4517679  )
        20        H      tau(  20) = (  -0.2273034  -0.1012542   0.4517679  )
        21        H      tau(  21) = (   0.2092045   0.5311927   0.0000000  )
        22        H      tau(  22) = (   0.4126324   0.3945463   0.0000000  )
        23        H      tau(  23) = (  -0.0000001  -0.0000001   0.7075785  )
        24        H      tau(  24) = (   0.3109184   0.4628695   0.1225308  )
        25        H      tau(  25) = (   0.2215666  -0.1488306   0.3760320  )
        26        H      tau(  26) = (   0.0893518   0.6117000   0.4540772  )
        27        H      tau(  27) = (  -0.3769339   0.2531937   0.5631968  )
        28        H      tau(  28) = (   0.6878522   0.2096757   0.2669125  )
        29        H      tau(  29) = (  -0.2215666   0.1488305   0.3760320  )
        30        H      tau(  30) = (  -0.0660154   0.7160632   0.2669125  )
        31        H      tau(  31) = (   0.0510710   0.4119012   0.3948676  )
        32        H      tau(  32) = (   0.0666821   0.4031713   0.3353614  )
        33        H      tau(  33) = (   0.1121090   0.7945726   0.1624469  )
        34        H      tau(  34) = (   0.4896740  -0.0778133   0.1942901  )
        35        H      tau(  35) = (   0.4148455  -0.0211406   0.6399180  )
        36        H      tau(  36) = (   0.3992774  -0.0764526   0.6635636  )
        37        H      tau(  37) = (   0.5726051   0.5310571   0.3385257  )
        38        H      tau(  38) = (   0.5533155   0.5053482   0.3917033  )
        39        H      tau(  39) = (   0.4800361   0.3207201   0.4867173  )
        40        H      tau(  40) = (   0.4983084   0.3655456   0.4477597  )
        41        H      tau(  41) = (   0.3839784  -0.2911586   0.6118789  )
        42        H      tau(  42) = (   0.3917397  -0.2299066   0.6188689  )
        43        C      tau(  43) = (   0.5510999   0.3015349   0.2893371  )
        44        C      tau(  44) = (  -0.2401815   0.1613345   0.5407722  )
        45        C      tau(  45) = (   0.2401814  -0.1613346   0.5407722  )
        46        C      tau(  46) = (   0.0707370   0.6242040   0.2893371  )
        47        C      tau(  47) = (   0.6049578   0.2653575   0.3542176  )
        48        C      tau(  48) = (  -0.2940394   0.1975119   0.4758917  )
        49        C      tau(  49) = (   0.2940393  -0.1975120   0.4758917  )
        50        C      tau(  50) = (   0.0168790   0.6603814   0.3542176  )
        51        C      tau(  51) = (   0.5864332   0.2778008   0.4376842  )
        52        C      tau(  52) = (  -0.2755148   0.1850686   0.3924250  )
        53        C      tau(  53) = (   0.3633258  -0.2440531   0.4982075  )
        54        C      tau(  54) = (  -0.0524074   0.7069225   0.3319018  )
        55        C      tau(  55) = (   0.0354036   0.6479381   0.4376842  )
        56        C      tau(  56) = (   0.2755148  -0.1850687   0.3924250  )
        57        C      tau(  57) = (   0.6742442   0.2188164   0.3319018  )
        58        C      tau(  58) = (  -0.3633259   0.2440530   0.4982075  )
        59        C      tau(  59) = (   0.1977491   0.2943924   0.3743511  )
        60        C      tau(  60) = (   0.1131693   0.1684770   0.4557582  )
        61        C      tau(  61) = (   0.4240877   0.6313465   0.3743511  )
        62        C      tau(  62) = (  -0.1131694  -0.1684772   0.4557582  )
        63        C      tau(  63) = (   0.5085015   0.0856540   0.0000000  )
        64        C      tau(  64) = (   0.1133354   0.8400850   0.0000000  )
        65        C      tau(  65) = (   0.7348401   0.4226082   0.0000000  )
        66        C      tau(  66) = (  -0.1130032   0.5031308   0.0000000  )
        67        C      tau(  67) = (   0.2425630   0.3611076   0.3297094  )
        68        C      tau(  68) = (   0.0683554   0.1017618   0.5003998  )
        69        C      tau(  69) = (   0.3792738   0.5646313   0.3297094  )
        70        C      tau(  70) = (  -0.0683555  -0.1017619   0.5003998  )
        71        C      tau(  71) = (   0.5162579   0.1772614   0.0000000  )
        72        C      tau(  72) = (   0.1055789   0.7484776   0.0000000  )
        73        C      tau(  73) = (   0.6529688   0.3807851   0.0000000  )
        74        C      tau(  74) = (  -0.0311319   0.5449538   0.0000000  )
        75        C      tau(  75) = (   0.1144289   0.3044172   0.3948166  )
        76        C      tau(  76) = (   0.1964894   0.1584522   0.4352927  )
        77        C      tau(  77) = (   0.3832988   0.7046882   0.3948166  )
        78        C      tau(  78) = (  -0.0723804  -0.2418188   0.4352927  )
        79        C      tau(  79) = (   0.5042245   0.0425840   0.0747547  )
        80        C      tau(  80) = (  -0.1933061   0.4202854   0.7553546  )
        81        C      tau(  81) = (   0.7730943   0.4428550   0.0747547  )
        82        C      tau(  82) = (  -0.4621760   0.0200144   0.7553546  )
        83        C      tau(  83) = (   0.5074079   0.6213217   0.3948166  )
        84        C      tau(  84) = (  -0.1964895  -0.1584523   0.4352927  )
        85        C      tau(  85) = (   0.2385380   0.2210507   0.3948166  )
        86        C      tau(  86) = (   0.0723803   0.2418187   0.4352927  )
        87        C      tau(  87) = (   0.4621758  -0.0200146   0.7553546  )
        88        C      tau(  88) = (  -0.1512574   0.4828840   0.0747547  )
        89        C      tau(  89) = (   0.1933060  -0.4202856   0.7553546  )
        90        C      tau(  90) = (   0.1176124   0.8831550   0.0747547  )
        91        N      tau(  91) = (   0.0836151   0.3616153   0.3783414  )
        92        N      tau(  92) = (   0.1143939   0.8488170   0.1322273  )
        93        N      tau(  93) = (   0.4316049  -0.0359794   0.6978820  )
        94        N      tau(  94) = (   0.5382218   0.5641235   0.3783414  )
        95        N      tau(  95) = (   0.5324850   0.3140388   0.4540772  )
        96        N      tau(  96) = (   0.3769338  -0.2531939   0.5631968  )
        97        O      tau(  97) = (   0.4885547   0.3435477   0.3121369  )
        98        O      tau(  98) = (  -0.1776363   0.1193217   0.5179724  )
        99        O      tau(  99) = (   0.2591077  -0.1740478   0.6161179  )
       100        O      tau( 100) = (   0.0518107   0.6369172   0.2139914  )
       101        O      tau( 101) = (   0.1332821   0.5821912   0.3121369  )
       102        O      tau( 102) = (   0.1776362  -0.1193218   0.5179724  )
       103        O      tau( 103) = (   0.5700262   0.2888217   0.2139914  )
       104        O      tau( 104) = (  -0.2591078   0.1740476   0.6161179  )
       105        O      tau( 105) = (   0.4060787   0.3080567   0.1653171  )
       106        O      tau( 106) = (  -0.0951603   0.1548126   0.6647922  )
       107        O      tau( 107) = (   0.4902207   0.4333203   0.1653171  )
       108        O      tau( 108) = (  -0.1793023   0.0295490   0.6647922  )
       109        O      tau( 109) = (   0.0951602  -0.1548128   0.6647922  )
       110        O      tau( 110) = (   0.2157581   0.6176822   0.1653171  )
       111        O      tau( 111) = (   0.1793022  -0.0295492   0.6647922  )
       112        O      tau( 112) = (   0.1316162   0.4924186   0.1653171  )
       113        O      tau( 113) = (   0.3179808   0.3491619   0.3116761  )
       114        O      tau( 114) = (  -0.0070624   0.1137075   0.5184331  )
       115        O      tau( 115) = (   0.4188527   0.4993315   0.3116761  )
       116        O      tau( 116) = (  -0.1079343  -0.0364622   0.5184331  )
       117        O      tau( 117) = (   0.2082893  -0.2488758   0.7608433  )
       118        O      tau( 118) = (   0.1026291   0.7117451   0.0692660  )
       119        O      tau( 119) = (   0.3091612  -0.0987061   0.7608433  )
       120        O      tau( 120) = (   0.0017572   0.5615755   0.0692660  )
       121        O      tau( 121) = (   0.3038560   0.5765770   0.3116761  )
       122        O      tau( 122) = (   0.0070623  -0.1137077   0.5184331  )
       123        O      tau( 123) = (   0.2029841   0.4264074   0.3116761  )
       124        O      tau( 124) = (   0.1079342   0.0364620   0.5184331  )
       125        O      tau( 125) = (   0.6200797   0.3641635   0.0692660  )
       126        O      tau( 126) = (  -0.3091613   0.0987059   0.7608433  )
       127        O      tau( 127) = (   0.5192078   0.2139938   0.0692660  )
       128        O      tau( 128) = (  -0.2082894   0.2488756   0.7608433  )
       129        O      tau( 129) = (   0.3109184   0.4628695   0.1822007  )
       130        O      tau( 130) = (  -0.0000001  -0.0000001   0.6479086  )
       131        O      tau( 131) = (   0.4621650   0.3612743   0.0000000  )
       132        O      tau( 132) = (   0.1596719   0.5644647   0.0000000  )

     --------------------------------------------
     DFT-D3 Dispersion Correction (3-body terms):
     --------------------------------------------
       Reference C6 values for interpolation: 

         atom   Coordination number   C6
         H          0.912             6.05
         H          0.000            15.18
         C          0.000            98.23
         C          0.987            86.49
         C          1.998            58.72
         C          2.999            51.56
         C          3.984            36.41
         N          0.000            50.54
         N          0.994            44.25
         N          2.014            39.35
         N          2.990            31.16
         O          0.000            31.01
         O          0.993            25.63
         O          1.989            20.74
         Ti         0.000          2723.84
         Ti         1.830           604.00
         Ti         3.868           643.18

       Values used:

         atom   Coordination number  R0_AB[au]  C6      C8
         Ti         7.249            3.557    643.18  76289.64
         Ti         7.250            3.557    643.18  76289.64
         Ti         7.250            3.557    643.18  76289.64
         Ti         7.253            3.557    643.18  76289.64
         Ti         7.253            3.557    643.18  76289.64
         Ti         7.254            3.557    643.18  76289.64
         Ti         7.249            3.557    643.18  76289.64
         Ti         7.254            3.557    643.18  76289.64
         H          1.004            2.062      6.18     74.67
         H          1.005            2.062      6.18     74.66
         H          1.004            2.062      6.18     74.67
         H          1.004            2.062      6.18     74.67
         H          1.005            2.062      6.18     74.66
         H          1.005            2.062      6.18     74.66
         H          1.004            2.062      6.18     74.67
         H          1.004            2.062      6.18     74.67
         H          1.004            2.062      6.18     74.67
         H          1.004            2.062      6.18     74.67
         H          1.005            2.062      6.18     74.66
         H          1.004            2.062      6.18     74.67
         H          1.062            2.062      6.14     74.16
         H          1.062            2.062      6.14     74.16
         H          1.062            2.062      6.14     74.16
         H          1.062            2.062      6.14     74.16
         H          1.004            2.062      6.18     74.67
         H          1.005            2.062      6.18     74.67
         H          1.005            2.062      6.18     74.67
         H          1.004            2.062      6.18     74.67
         H          1.004            2.062      6.18     74.67
         H          1.004            2.062      6.18     74.67
         H          1.085            2.062      6.12     74.01
         H          1.087            2.062      6.12     74.00
         H          1.090            2.062      6.12     73.98
         H          1.085            2.062      6.12     74.01
         H          1.085            2.062      6.12     74.01
         H          1.087            2.062      6.12     74.00
         H          1.085            2.062      6.12     74.01
         H          1.085            2.062      6.12     74.01
         H          1.085            2.062      6.12     74.01
         H          1.086            2.062      6.12     74.00
         H          1.085            2.062      6.12     74.01
         H          1.086            2.062      6.12     74.01
         C          3.355            2.750     47.39   1370.50
         C          3.343            2.750     47.65   1378.12
         C          3.354            2.750     47.39   1370.52
         C          3.344            2.750     47.64   1377.88
         C          3.358            2.750     47.31   1368.20
         C          3.188            2.750     50.18   1451.41
         C          3.358            2.750     47.31   1368.21
         C          3.188            2.750     50.18   1451.36
         C          3.189            2.750     50.17   1451.08
         C          3.165            2.750     50.40   1457.78
         C          3.189            2.750     50.17   1451.07
         C          3.165            2.750     50.40   1457.75
         C          3.329            2.750     47.96   1387.09
         C          3.166            2.750     50.40   1457.60
         C          3.166            2.750     50.40   1457.61
         C          3.329            2.750     47.96   1387.16
         C          3.360            2.750     47.26   1366.87
         C          3.188            2.750     50.18   1451.39
         C          3.360            2.750     47.26   1366.89
         C          3.188            2.750     50.18   1451.40
         C          3.188            2.750     50.18   1451.38
         C          3.360            2.750     47.26   1366.84
         C          3.360            2.750     47.26   1366.85
         C          3.188            2.750     50.18   1451.39
         C          3.223            2.750     49.78   1439.81
         C          3.212            2.750     49.92   1443.76
         C          3.223            2.750     49.78   1439.83
         C          3.212            2.750     49.92   1443.77
         C          3.212            2.750     49.92   1443.74
         C          3.223            2.750     49.78   1439.78
         C          3.223            2.750     49.78   1439.80
         C          3.212            2.750     49.92   1443.76
         C          3.189            2.750     50.17   1451.10
         C          3.165            2.750     50.40   1457.77
         C          3.166            2.750     50.40   1457.60
         C          3.328            2.750     47.99   1387.88
         C          3.328            2.750     47.99   1387.83
         C          3.166            2.750     50.40   1457.60
         C          3.166            2.750     50.40   1457.60
         C          3.328            2.750     47.99   1387.84
         C          3.189            2.750     50.17   1451.08
         C          3.165            2.750     50.40   1457.78
         C          3.166            2.750     50.40   1457.59
         C          3.328            2.750     47.99   1387.87
         C          3.189            2.750     50.17   1451.08
         C          3.165            2.750     50.40   1457.77
         C          3.165            2.750     50.40   1457.76
         C          3.189            2.750     50.17   1451.10
         N          3.369            2.478     31.17    687.68
         N          3.369            2.478     31.17    687.68
         N          3.370            2.478     31.17    687.68
         N          3.370            2.478     31.17    687.68
         N          3.368            2.478     31.17    687.69
         N          3.368            2.478     31.17    687.69
         O          2.054            2.345     20.79    419.59
         O          2.041            2.345     20.80    419.70
         O          2.054            2.345     20.79    419.59
         O          2.042            2.345     20.80    419.69
         O          2.042            2.345     20.80    419.69
         O          2.041            2.345     20.80    419.70
         O          2.041            2.345     20.80    419.70
         O          2.041            2.345     20.80    419.70
         O          2.010            2.345     20.81    420.01
         O          2.010            2.345     20.81    420.01
         O          2.010            2.345     20.81    420.01
         O          2.010            2.345     20.81    420.01
         O          2.010            2.345     20.81    420.01
         O          2.010            2.345     20.81    420.01
         O          2.010            2.345     20.81    420.01
         O          2.010            2.345     20.81    420.01
         O          2.019            2.345     20.81    419.92
         O          2.018            2.345     20.81    419.92
         O          2.031            2.345     20.80    419.79
         O          2.018            2.345     20.81    419.92
         O          2.018            2.345     20.81    419.92
         O          2.033            2.345     20.80    419.77
         O          2.032            2.345     20.80    419.78
         O          2.018            2.345     20.81    419.92
         O          2.018            2.345     20.81    419.92
         O          2.018            2.345     20.81    419.92
         O          2.031            2.345     20.80    419.79
         O          2.018            2.345     20.81    419.92
         O          2.018            2.345     20.81    419.92
         O          2.018            2.345     20.81    419.92
         O          2.018            2.345     20.81    419.92
         O          2.018            2.345     20.81    419.92
         O          2.940            2.345     20.74    418.58
         O          2.940            2.345     20.74    418.58
         O          2.940            2.345     20.74    418.58
         O          2.940            2.345     20.74    418.58

         Molecular C6 ( Ry / a.u.^6 ) =    656875.52


   Crystallographic axes

     site n.     atom                  positions (cryst. coord.)
         1        Ti     tau(   1) = (  0.2898400  0.5718700  0.8617100  )
         2        Ti     tau(   2) = (  0.7101600  0.4281300  0.1382900  )
         3        Ti     tau(   3) = (  0.4281300  0.2898400  0.7179700  )
         4        Ti     tau(   4) = (  0.5718700  0.7101600  0.2820300  )
         5        Ti     tau(   5) = (  0.4281300  0.7101600  0.1382900  )
         6        Ti     tau(   6) = (  0.5718700  0.2898400  0.8617100  )
         7        Ti     tau(   7) = (  0.2898400  0.4281300  0.7179700  )
         8        Ti     tau(   8) = (  0.7101600  0.5718700  0.2820300  )
         9        H      tau(   9) = (  0.5407790  0.3814900  0.5442270  )
        10        H      tau(  10) = (  0.1627370  0.0034480  0.5442270  )
        11        H      tau(  11) = (  0.8372630  0.9965520  0.4557730  )
        12        H      tau(  12) = (  0.3814900  0.8372630  0.8407110  )
        13        H      tau(  13) = (  0.6185100  0.1627370  0.1592890  )
        14        H      tau(  14) = (  0.0034480  0.4592210  0.8407110  )
        15        H      tau(  15) = (  0.9965520  0.5407790  0.1592890  )
        16        H      tau(  16) = (  0.4592210  0.0034480  0.8407110  )
        17        H      tau(  17) = (  0.1627370  0.6185100  0.1592890  )
        18        H      tau(  18) = (  0.6185100  0.4592210  0.4557730  )
        19        H      tau(  19) = (  0.3814900  0.5407790  0.5442270  )
        20        H      tau(  20) = (  0.0034480  0.1627370  0.5442270  )
        21        H      tau(  21) = (  0.4261960  0.5738040  0.0000000  )
        22        H      tau(  22) = (  0.5738040  0.4261960  0.0000000  )
        23        H      tau(  23) = (  0.4261960  0.4261960  0.8523920  )
        24        H      tau(  24) = (  0.5738040  0.5738040  0.1476080  )
        25        H      tau(  25) = (  0.3872650  0.0657260  0.4529910  )
        26        H      tau(  26) = (  0.6127350  0.9342740  0.5470090  )
        27        H      tau(  27) = (  0.0657260  0.6127350  0.6784610  )
        28        H      tau(  28) = (  0.9342740  0.3872650  0.3215390  )
        29        H      tau(  29) = (  0.0657260  0.3872650  0.4529910  )
        30        H      tau(  30) = (  0.3872650  0.9342740  0.3215390  )
        31        H      tau(  31) = (  0.4571728  0.6827839  0.4756814  )
        32        H      tau(  32) = (  0.4333754  0.6375113  0.4039967  )
        33        H      tau(  33) = (  0.5345376  0.9561584  0.1956934  )
        34        H      tau(  34) = (  0.5749142  0.0329715  0.2340536  )
        35        H      tau(  35) = (  0.7916517  0.3626057  0.7708840  )
        36        H      tau(  36) = (  0.7677313  0.3170991  0.7993690  )
        37        H      tau(  37) = (  0.9934455  0.7775618  0.4078085  )
        38        H      tau(  38) = (  0.9956844  0.7818212  0.4718696  )
        39        H      tau(  39) = (  0.9042145  0.6396123  0.5863292  )
        40        H      tau(  40) = (  0.9173326  0.6645683  0.5393985  )
        41        H      tau(  41) = (  0.6335939  0.0540386  0.7371065  )
        42        H      tau(  42) = (  0.6705867  0.1244143  0.7455270  )
        43        C      tau(  43) = (  0.8485530  0.5000000  0.3485530  )
        44        C      tau(  44) = (  0.1514470  0.5000000  0.6514470  )
        45        C      tau(  45) = (  0.5000000  0.1514470  0.6514470  )
        46        C      tau(  46) = (  0.5000000  0.8485530  0.3485530  )
        47        C      tau(  47) = (  0.9267120  0.5000000  0.4267120  )
        48        C      tau(  48) = (  0.0732880  0.5000000  0.5732880  )
        49        C      tau(  49) = (  0.5000000  0.0732880  0.5732880  )
        50        C      tau(  50) = (  0.5000000  0.9267120  0.4267120  )
        51        C      tau(  51) = (  0.9635450  0.5637160  0.5272610  )
        52        C      tau(  52) = (  0.0364550  0.4362840  0.4727390  )
        53        C      tau(  53) = (  0.5637160  0.0364550  0.6001710  )
        54        C      tau(  54) = (  0.4362840  0.9635450  0.3998290  )
        55        C      tau(  55) = (  0.5637160  0.9635450  0.5272610  )
        56        C      tau(  56) = (  0.4362840  0.0364550  0.4727390  )
        57        C      tau(  57) = (  0.9635450  0.4362840  0.3998290  )
        58        C      tau(  58) = (  0.0364550  0.5637160  0.6001710  )
        59        C      tau(  59) = (  0.5434910  0.5434910  0.4509660  )
        60        C      tau(  60) = (  0.4565090  0.4565090  0.5490340  )
        61        C      tau(  61) = (  0.9074750  0.9074750  0.4509660  )
        62        C      tau(  62) = (  0.0925250  0.0925250  0.5490340  )
        63        C      tau(  63) = (  0.5434910  0.0925250  0.0000000  )
        64        C      tau(  64) = (  0.4565090  0.9074750  0.0000000  )
        65        C      tau(  65) = (  0.9074750  0.4565090  0.0000000  )
        66        C      tau(  66) = (  0.0925250  0.5434910  0.0000000  )
        67        C      tau(  67) = (  0.5886690  0.5886690  0.3971880  )
        68        C      tau(  68) = (  0.4113310  0.4113310  0.6028120  )
        69        C      tau(  69) = (  0.8085190  0.8085190  0.3971880  )
        70        C      tau(  70) = (  0.1914810  0.1914810  0.6028120  )
        71        C      tau(  71) = (  0.5886690  0.1914810  0.0000000  )
        72        C      tau(  72) = (  0.4113310  0.8085190  0.0000000  )
        73        C      tau(  73) = (  0.8085190  0.4113310  0.0000000  )
        74        C      tau(  74) = (  0.1914810  0.5886690  0.0000000  )
        75        C      tau(  75) = (  0.4765930  0.5666470  0.4756200  )
        76        C      tau(  76) = (  0.5234070  0.4333530  0.5243800  )
        77        C      tau(  77) = (  0.9089730  0.9990270  0.4756200  )
        78        C      tau(  78) = (  0.0910270  0.0009730  0.5243800  )
        79        C      tau(  79) = (  0.5666470  0.0910270  0.0900540  )
        80        C      tau(  80) = (  0.4333530  0.9089730  0.9099460  )
        81        C      tau(  81) = (  0.9990270  0.5234070  0.0900540  )
        82        C      tau(  82) = (  0.0009730  0.4765930  0.9099460  )
        83        C      tau(  83) = (  0.9990270  0.9089730  0.4756200  )
        84        C      tau(  84) = (  0.0009730  0.0910270  0.5243800  )
        85        C      tau(  85) = (  0.5666470  0.4765930  0.4756200  )
        86        C      tau(  86) = (  0.4333530  0.5234070  0.5243800  )
        87        C      tau(  87) = (  0.9089730  0.4333530  0.9099460  )
        88        C      tau(  88) = (  0.0910270  0.5666470  0.0900540  )
        89        C      tau(  89) = (  0.4765930  0.0009730  0.9099460  )
        90        C      tau(  90) = (  0.5234070  0.9990270  0.0900540  )
        91        N      tau(  91) = (  0.4592210  0.6185100  0.4557730  )
        92        N      tau(  92) = (  0.5407790  0.9965520  0.1592890  )
        93        N      tau(  93) = (  0.8372630  0.3814900  0.8407110  )
        94        N      tau(  94) = (  0.9965520  0.8372630  0.4557730  )
        95        N      tau(  95) = (  0.9342740  0.6127350  0.5470090  )
        96        N      tau(  96) = (  0.6127350  0.0657260  0.6784610  )
        97        O      tau(  97) = (  0.8169030  0.5591160  0.3760190  )
        98        O      tau(  98) = (  0.1830970  0.4408840  0.6239810  )
        99        O      tau(  99) = (  0.5591160  0.1830970  0.7422130  )
       100        O      tau( 100) = (  0.4408840  0.8169030  0.2577870  )
       101        O      tau( 101) = (  0.5591160  0.8169030  0.3760190  )
       102        O      tau( 102) = (  0.4408840  0.1830970  0.6239810  )
       103        O      tau( 103) = (  0.8169030  0.4408840  0.2577870  )
       104        O      tau( 104) = (  0.1830970  0.5591160  0.7422130  )
       105        O      tau( 105) = (  0.6314950  0.4323440  0.1991510  )
       106        O      tau( 106) = (  0.3685050  0.5676560  0.8008490  )
       107        O      tau( 107) = (  0.7668070  0.5676560  0.1991510  )
       108        O      tau( 108) = (  0.2331930  0.4323440  0.8008490  )
       109        O      tau( 109) = (  0.4323440  0.2331930  0.8008490  )
       110        O      tau( 110) = (  0.5676560  0.7668070  0.1991510  )
       111        O      tau( 111) = (  0.5676560  0.3685050  0.8008490  )
       112        O      tau( 112) = (  0.4323440  0.6314950  0.1991510  )
       113        O      tau( 113) = (  0.6483450  0.5649030  0.3754640  )
       114        O      tau( 114) = (  0.3516550  0.4350970  0.6245360  )
       115        O      tau( 115) = (  0.8105610  0.7271190  0.3754640  )
       116        O      tau( 116) = (  0.1894390  0.2728810  0.6245360  )
       117        O      tau( 117) = (  0.5649030  0.1894390  0.9165580  )
       118        O      tau( 118) = (  0.4350970  0.8105610  0.0834420  )
       119        O      tau( 119) = (  0.7271190  0.3516550  0.9165580  )
       120        O      tau( 120) = (  0.2728810  0.6483450  0.0834420  )
       121        O      tau( 121) = (  0.7271190  0.8105610  0.3754640  )
       122        O      tau( 122) = (  0.2728810  0.1894390  0.6245360  )
       123        O      tau( 123) = (  0.5649030  0.6483450  0.3754640  )
       124        O      tau( 124) = (  0.4350970  0.3516550  0.6245360  )
       125        O      tau( 125) = (  0.8105610  0.4350970  0.0834420  )
       126        O      tau( 126) = (  0.1894390  0.5649030  0.9165580  )
       127        O      tau( 127) = (  0.6483450  0.2728810  0.0834420  )
       128        O      tau( 128) = (  0.3516550  0.7271190  0.9165580  )
       129        O      tau( 129) = (  0.6097450  0.6097450  0.2194900  )
       130        O      tau( 130) = (  0.3902550  0.3902550  0.7805100  )
       131        O      tau( 131) = (  0.6097450  0.3902550  0.0000000  )
       132        O      tau( 132) = (  0.3902550  0.6097450  0.0000000  )

     number of k points=    14
                       cart. coord. in units 2pi/alat
        k(    1) = (   0.0000000   0.0000000   0.0000000), wk =   0.0740741
        k(    2) = (   0.0000000   0.0000000   0.4015536), wk =   0.1481481
        k(    3) = (   0.0000000   0.3600727   0.2007768), wk =   0.1481481
        k(    4) = (   0.0000000   0.3600727   0.6023304), wk =   0.1481481
        k(    5) = (   0.0000000   0.3600727  -0.2007767), wk =   0.1481481
        k(    6) = (   0.3333333   0.1361662   0.2007768), wk =   0.1481481
        k(    7) = (   0.3333333   0.1361662   0.6023304), wk =   0.1481481
        k(    8) = (   0.3333333   0.1361662  -0.2007767), wk =   0.1481481
        k(    9) = (   0.3333333   0.4962389   0.4015537), wk =   0.1481481
        k(   10) = (   0.3333333   0.4962389   0.8031072), wk =   0.1481481
        k(   11) = (   0.3333333   0.4962389   0.0000001), wk =   0.1481481
        k(   12) = (   0.3333333  -0.2239065  -0.0000000), wk =   0.1481481
        k(   13) = (   0.3333333  -0.2239065   0.4015536), wk =   0.1481481
        k(   14) = (   0.3333333  -0.2239065  -0.4015536), wk =   0.1481481

                       cryst. coord.
        k(    1) = (   0.0000000   0.0000000   0.0000000), wk =   0.0740741
        k(    2) = (   0.0000000   0.0000000   0.3333333), wk =   0.1481481
        k(    3) = (   0.0000000   0.3333333  -0.0000000), wk =   0.1481481
        k(    4) = (   0.0000000   0.3333333   0.3333333), wk =   0.1481481
        k(    5) = (   0.0000000   0.3333333  -0.3333333), wk =   0.1481481
        k(    6) = (   0.3333333   0.0000000   0.0000000), wk =   0.1481481
        k(    7) = (   0.3333333   0.0000000   0.3333333), wk =   0.1481481
        k(    8) = (   0.3333333   0.0000000  -0.3333333), wk =   0.1481481
        k(    9) = (   0.3333333   0.3333333   0.0000000), wk =   0.1481481
        k(   10) = (   0.3333333   0.3333333   0.3333333), wk =   0.1481481
        k(   11) = (   0.3333333   0.3333333  -0.3333333), wk =   0.1481481
        k(   12) = (   0.3333333  -0.3333333   0.0000000), wk =   0.1481481
        k(   13) = (   0.3333333  -0.3333333   0.3333333), wk =   0.1481481
        k(   14) = (   0.3333333  -0.3333333  -0.3333333), wk =   0.1481481

     Dense  grid:  1762151 G-vectors     FFT dimensions: ( 180, 180, 180)

     Smooth grid:   761105 G-vectors     FFT dimensions: ( 125, 125, 125)

     Dynamical RAM for                 wfc:      12.49 MB

     Dynamical RAM for     wfc (w. buffer):     187.40 MB

     Dynamical RAM for           str. fact:       4.07 MB

     Dynamical RAM for           local pot:       0.00 MB

     Dynamical RAM for          nlocal pot:      41.00 MB

     Dynamical RAM for                qrad:       6.72 MB

     Dynamical RAM for          rho,v,vnew:       6.89 MB

     Dynamical RAM for               rhoin:       2.30 MB

     Dynamical RAM for            rho*nmix:      13.04 MB

     Dynamical RAM for           G-vectors:       3.23 MB

     Dynamical RAM for          h,s,v(r/c):       1.64 MB

     Dynamical RAM for          <psi|beta>:       4.04 MB

     Dynamical RAM for                 psi:      24.99 MB

     Dynamical RAM for                hpsi:      24.99 MB

     Dynamical RAM for                spsi:      24.99 MB

     Dynamical RAM for      wfcinit/wfcrot:      46.85 MB

     Dynamical RAM for           addusdens:     190.67 MB

     Estimated static dynamical RAM per process >     263.92 MB

     Estimated max dynamical RAM per process >     467.63 MB

     Estimated total dynamical RAM >      15.07 GB

     Check: negative core charge=   -0.000003

     Initial potential from superposition of free atoms

     starting charge     559.9972, renormalised to     568.0000

     negative rho (up, down):  9.869E-03 0.000E+00
     Starting wfcs are  474 randomized atomic wfcs
     Checking if some PAW data can be deallocated... 
       PAW data deallocated on   20 nodes for type:  3
       PAW data deallocated on   24 nodes for type:  5

     total cpu time spent up to now is      193.6 secs

     Self-consistent Calculation

     iteration #  1     ecut=    40.00 Ry     beta= 0.40
     Davidson diagonalization with overlap

---- Real-time Memory Report at c_bands before calling an iterative solver
           338 MiB given to the printing process from OS
             0 MiB allocation reported by mallinfo(arena+hblkhd)
          1665 MiB available memory on the node where the printing process lives
------------------
     ethr =  1.00E-02,  avg # of iterations =  2.0

     negative rho (up, down):  2.811E-03 0.000E+00

     total cpu time spent up to now is      653.6 secs

     total energy              =   -3376.99115553 Ry
     estimated scf accuracy    <     222.62505156 Ry

     iteration #  2     ecut=    40.00 Ry     beta= 0.40
     Davidson diagonalization with overlap

---- Real-time Memory Report at c_bands before calling an iterative solver
           468 MiB given to the printing process from OS
             0 MiB allocation reported by mallinfo(arena+hblkhd)
          5458 MiB available memory on the node where the printing process lives
------------------
     ethr =  1.00E-02,  avg # of iterations = 12.0

     negative rho (up, down):  4.193E-03 0.000E+00

     total cpu time spent up to now is     1921.8 secs

     total energy              =   -3304.23792455 Ry
     estimated scf accuracy    <    2492.34091680 Ry

     iteration #  3     ecut=    40.00 Ry     beta= 0.40
     Davidson diagonalization with overlap

---- Real-time Memory Report at c_bands before calling an iterative solver
           470 MiB given to the printing process from OS
             0 MiB allocation reported by mallinfo(arena+hblkhd)
          5435 MiB available memory on the node where the printing process lives
------------------
     ethr =  1.00E-02,  avg # of iterations = 11.4

     negative rho (up, down):  5.055E-03 0.000E+00

     total cpu time spent up to now is     3127.2 secs

     total energy              =   -3494.23152688 Ry
     estimated scf accuracy    <     116.64825824 Ry

     iteration #  4     ecut=    40.00 Ry     beta= 0.40
     Davidson diagonalization with overlap

---- Real-time Memory Report at c_bands before calling an iterative solver
           471 MiB given to the printing process from OS
             0 MiB allocation reported by mallinfo(arena+hblkhd)
          5407 MiB available memory on the node where the printing process lives
------------------
     ethr =  1.00E-02,  avg # of iterations =  6.1

     negative rho (up, down):  5.516E-03 0.000E+00

     total cpu time spent up to now is     3549.4 secs

     total energy              =   -3503.73266312 Ry
     estimated scf accuracy    <      26.49870286 Ry

     iteration #  5     ecut=    40.00 Ry     beta= 0.40
     Davidson diagonalization with overlap

---- Real-time Memory Report at c_bands before calling an iterative solver
           472 MiB given to the printing process from OS
             0 MiB allocation reported by mallinfo(arena+hblkhd)
          5443 MiB available memory on the node where the printing process lives
------------------
     ethr =  4.67E-03,  avg # of iterations =  2.0

     negative rho (up, down):  7.539E-03 0.000E+00

     total cpu time spent up to now is     3858.6 secs

     total energy              =   -3497.79631351 Ry
     estimated scf accuracy    <      15.33689710 Ry

     iteration #  6     ecut=    40.00 Ry     beta= 0.40
     Davidson diagonalization with overlap

---- Real-time Memory Report at c_bands before calling an iterative solver
           473 MiB given to the printing process from OS
             0 MiB allocation reported by mallinfo(arena+hblkhd)
          5410 MiB available memory on the node where the printing process lives
------------------
     c_bands:  2 eigenvalues not converged
     ethr =  2.70E-03,  avg # of iterations = 16.6

     negative rho (up, down):  7.960E-03 0.000E+00

     total cpu time spent up to now is     4335.0 secs

     total energy              =   -3501.84724421 Ry
     estimated scf accuracy    <      60.74850729 Ry

     iteration #  7     ecut=    40.00 Ry     beta= 0.40
     Davidson diagonalization with overlap

---- Real-time Memory Report at c_bands before calling an iterative solver
           475 MiB given to the printing process from OS
             0 MiB allocation reported by mallinfo(arena+hblkhd)
          5379 MiB available memory on the node where the printing process lives
------------------
     ethr =  2.70E-03,  avg # of iterations =  3.9

     negative rho (up, down):  8.567E-03 0.000E+00

     total cpu time spent up to now is     4641.3 secs

     total energy              =   -3496.84762796 Ry
     estimated scf accuracy    <      51.28528134 Ry

     iteration #  8     ecut=    40.00 Ry     beta= 0.40
     Davidson diagonalization with overlap

---- Real-time Memory Report at c_bands before calling an iterative solver
           476 MiB given to the printing process from OS
             0 MiB allocation reported by mallinfo(arena+hblkhd)
          5455 MiB available memory on the node where the printing process lives
------------------
     ethr =  2.70E-03,  avg # of iterations =  8.0

     negative rho (up, down):  8.827E-03 0.000E+00

     total cpu time spent up to now is     5009.3 secs

     total energy              =   -3500.66718590 Ry
     estimated scf accuracy    <       1.02930540 Ry

     iteration #  9     ecut=    40.00 Ry     beta= 0.40
     Davidson diagonalization with overlap

---- Real-time Memory Report at c_bands before calling an iterative solver
           477 MiB given to the printing process from OS
             0 MiB allocation reported by mallinfo(arena+hblkhd)
          5421 MiB available memory on the node where the printing process lives
------------------
     ethr =  1.81E-04,  avg # of iterations =  5.0

     negative rho (up, down):  1.038E-02 0.000E+00

     total cpu time spent up to now is     5384.3 secs

     total energy              =   -3500.71580096 Ry
     estimated scf accuracy    <       0.40411381 Ry

     iteration # 10     ecut=    40.00 Ry     beta= 0.40
     Davidson diagonalization with overlap

---- Real-time Memory Report at c_bands before calling an iterative solver
           478 MiB given to the printing process from OS
             0 MiB allocation reported by mallinfo(arena+hblkhd)
          5389 MiB available memory on the node where the printing process lives
------------------
     ethr =  7.11E-05,  avg # of iterations =  5.0

     negative rho (up, down):  1.094E-02 0.000E+00

     total cpu time spent up to now is     5753.5 secs

     total energy              =   -3500.73955288 Ry
     estimated scf accuracy    <       0.13476613 Ry

     iteration # 11     ecut=    40.00 Ry     beta= 0.40
     Davidson diagonalization with overlap

---- Real-time Memory Report at c_bands before calling an iterative solver
           478 MiB given to the printing process from OS
             0 MiB allocation reported by mallinfo(arena+hblkhd)
          5423 MiB available memory on the node where the printing process lives
------------------
     ethr =  2.37E-05,  avg # of iterations =  4.2

     negative rho (up, down):  1.179E-02 0.000E+00

     total cpu time spent up to now is     6135.2 secs

     total energy              =   -3500.73536580 Ry
     estimated scf accuracy    <       0.05794199 Ry

     iteration # 12     ecut=    40.00 Ry     beta= 0.40
     Davidson diagonalization with overlap

---- Real-time Memory Report at c_bands before calling an iterative solver
           478 MiB given to the printing process from OS
             0 MiB allocation reported by mallinfo(arena+hblkhd)
          5428 MiB available memory on the node where the printing process lives
------------------
     ethr =  1.02E-05,  avg # of iterations =  6.0

     negative rho (up, down):  1.170E-02 0.000E+00

     total cpu time spent up to now is     6585.4 secs

     total energy              =   -3500.74689945 Ry
     estimated scf accuracy    <       0.01508738 Ry

     iteration # 13     ecut=    40.00 Ry     beta= 0.40
     Davidson diagonalization with overlap

---- Real-time Memory Report at c_bands before calling an iterative solver
           478 MiB given to the printing process from OS
             0 MiB allocation reported by mallinfo(arena+hblkhd)
          5424 MiB available memory on the node where the printing process lives
------------------
     ethr =  2.66E-06,  avg # of iterations =  5.0

     negative rho (up, down):  1.157E-02 0.000E+00

     total cpu time spent up to now is     6999.8 secs

     total energy              =   -3500.74843884 Ry
     estimated scf accuracy    <       0.00739899 Ry

     iteration # 14     ecut=    40.00 Ry     beta= 0.40
     Davidson diagonalization with overlap

---- Real-time Memory Report at c_bands before calling an iterative solver
           478 MiB given to the printing process from OS
             0 MiB allocation reported by mallinfo(arena+hblkhd)
          5427 MiB available memory on the node where the printing process lives
------------------
     ethr =  1.30E-06,  avg # of iterations =  4.0

     negative rho (up, down):  1.172E-02 0.000E+00

     total cpu time spent up to now is     7387.6 secs

     total energy              =   -3500.74942462 Ry
     estimated scf accuracy    <       0.00206813 Ry

     iteration # 15     ecut=    40.00 Ry     beta= 0.40
     Davidson diagonalization with overlap

---- Real-time Memory Report at c_bands before calling an iterative solver
           478 MiB given to the printing process from OS
             0 MiB allocation reported by mallinfo(arena+hblkhd)
          5425 MiB available memory on the node where the printing process lives
------------------
     ethr =  3.64E-07,  avg # of iterations =  4.9

     negative rho (up, down):  1.183E-02 0.000E+00

     total cpu time spent up to now is     7752.3 secs

     total energy              =   -3500.74958692 Ry
     estimated scf accuracy    <       0.00081898 Ry

     iteration # 16     ecut=    40.00 Ry     beta= 0.40
     Davidson diagonalization with overlap

---- Real-time Memory Report at c_bands before calling an iterative solver
           478 MiB given to the printing process from OS
             0 MiB allocation reported by mallinfo(arena+hblkhd)
          5423 MiB available memory on the node where the printing process lives
------------------
     ethr =  1.44E-07,  avg # of iterations =  4.0

     negative rho (up, down):  1.188E-02 0.000E+00

     total cpu time spent up to now is     8084.0 secs

     total energy              =   -3500.74933101 Ry
     estimated scf accuracy    <       0.00055369 Ry

     iteration # 17     ecut=    40.00 Ry     beta= 0.40
     Davidson diagonalization with overlap

---- Real-time Memory Report at c_bands before calling an iterative solver
           478 MiB given to the printing process from OS
             0 MiB allocation reported by mallinfo(arena+hblkhd)
          5426 MiB available memory on the node where the printing process lives
------------------
     ethr =  9.75E-08,  avg # of iterations =  8.0

     negative rho (up, down):  1.183E-02 0.000E+00

     total cpu time spent up to now is     8583.7 secs

     total energy              =   -3500.74948129 Ry
     estimated scf accuracy    <       0.00026114 Ry

     iteration # 18     ecut=    40.00 Ry     beta= 0.40
     Davidson diagonalization with overlap

---- Real-time Memory Report at c_bands before calling an iterative solver
           478 MiB given to the printing process from OS
             0 MiB allocation reported by mallinfo(arena+hblkhd)
          5426 MiB available memory on the node where the printing process lives
------------------
     ethr =  4.60E-08,  avg # of iterations =  4.0

     negative rho (up, down):  1.181E-02 0.000E+00

     total cpu time spent up to now is     8948.8 secs

     total energy              =   -3500.74950212 Ry
     estimated scf accuracy    <       0.00004012 Ry

     iteration # 19     ecut=    40.00 Ry     beta= 0.40
     Davidson diagonalization with overlap

---- Real-time Memory Report at c_bands before calling an iterative solver
           478 MiB given to the printing process from OS
             0 MiB allocation reported by mallinfo(arena+hblkhd)
          5425 MiB available memory on the node where the printing process lives
------------------
     ethr =  7.06E-09,  avg # of iterations =  5.4

     negative rho (up, down):  1.180E-02 0.000E+00

     total cpu time spent up to now is     9425.0 secs

     total energy              =   -3500.74950983 Ry
     estimated scf accuracy    <       0.00001198 Ry

     iteration # 20     ecut=    40.00 Ry     beta= 0.40
     Davidson diagonalization with overlap

---- Real-time Memory Report at c_bands before calling an iterative solver
           478 MiB given to the printing process from OS
             0 MiB allocation reported by mallinfo(arena+hblkhd)
          5425 MiB available memory on the node where the printing process lives
------------------
     ethr =  2.11E-09,  avg # of iterations =  4.6

     negative rho (up, down):  1.180E-02 0.000E+00

     total cpu time spent up to now is     9812.9 secs

     total energy              =   -3500.74951085 Ry
     estimated scf accuracy    <       0.00000357 Ry

     iteration # 21     ecut=    40.00 Ry     beta= 0.40
     Davidson diagonalization with overlap

---- Real-time Memory Report at c_bands before calling an iterative solver
           478 MiB given to the printing process from OS
             0 MiB allocation reported by mallinfo(arena+hblkhd)
          5427 MiB available memory on the node where the printing process lives
------------------
     ethr =  6.28E-10,  avg # of iterations =  5.0

     negative rho (up, down):  1.180E-02 0.000E+00

     total cpu time spent up to now is    10225.6 secs

     total energy              =   -3500.74951132 Ry
     estimated scf accuracy    <       0.00000162 Ry

     iteration # 22     ecut=    40.00 Ry     beta= 0.40
     Davidson diagonalization with overlap

---- Real-time Memory Report at c_bands before calling an iterative solver
           478 MiB given to the printing process from OS
             0 MiB allocation reported by mallinfo(arena+hblkhd)
          5422 MiB available memory on the node where the printing process lives
------------------
     ethr =  2.85E-10,  avg # of iterations =  4.0

     negative rho (up, down):  1.180E-02 0.000E+00

     total cpu time spent up to now is    10585.2 secs

     End of self-consistent calculation

          k = 0.0000 0.0000 0.0000 ( 95047 PWs)   bands (ev):

   -59.5633 -59.5135 -59.4804 -59.4293 -59.4145 -59.3664 -59.3645 -59.3148
   -36.0754 -35.9956 -35.9316 -35.8814 -35.8484 -35.8263 -35.8099 -35.7630
   -35.7438 -35.7200 -35.7137 -35.6930 -35.6791 -35.6520 -35.6429 -35.6306
   -35.6268 -35.6232 -35.6017 -35.5662 -35.5437 -35.5136 -35.4800 -35.4307
   -24.3746 -24.2528 -24.0910 -23.9137 -23.8065 -23.7604 -23.7355 -23.7060
   -23.6509 -23.6443 -23.6223 -23.5808 -22.9230 -22.8291 -22.7724 -22.7057
   -22.4745 -22.2413 -22.0629 -21.8703 -21.7157 -21.6170 -21.4601 -21.4495
   -21.4197 -21.4097 -21.4016 -21.3858 -21.3761 -21.3666 -21.3514 -21.3462
   -21.3009 -21.2954 -19.2990 -19.1999 -19.1400 -19.0729 -19.0706 -18.9684
   -18.9088 -18.8422 -18.4010 -18.1073 -17.9166 -17.8764 -17.8634 -17.8468
   -16.7521 -16.5521 -16.4118 -16.4091 -16.2532 -16.1789 -16.1276 -15.8795
   -15.6446 -15.6361 -15.6231 -15.5782 -14.2047 -13.9117 -13.7185 -13.7134
   -13.6765 -13.6623 -13.6577 -13.4057 -13.1921 -13.1458 -13.1315 -13.0734
   -11.8116 -11.5356 -11.5007 -11.3553 -11.3227 -11.2932 -11.2883 -11.2432
   -11.0221 -10.9875 -10.9481 -10.9316 -10.3724 -10.0883  -9.9668  -9.9078
    -9.8351  -9.7879  -9.7259  -9.5813  -9.4617  -9.3944  -9.3597  -9.3265
    -9.2929  -9.2692  -9.2573  -9.2126  -9.2036  -9.1784  -9.0896  -9.0585
    -9.0424  -9.0068  -8.9274  -8.9082  -8.8879  -8.8703  -8.8262  -8.7975
    -8.7680  -8.7064  -8.6784  -8.6622  -8.6272  -8.5815  -8.5678  -8.5080
    -8.4352  -8.3976  -8.3816  -8.3280  -8.2634  -8.2420  -8.2117  -8.1929
    -8.1344  -8.1005  -8.0726  -7.9147  -7.8036  -7.7152  -7.6754  -7.6661
    -7.6044  -7.5926  -7.5743  -7.4947  -7.4387  -7.4107  -7.2863  -7.2481
    -7.0977  -7.0877  -7.0812  -7.0206  -6.9716  -6.6709  -6.5179  -6.3980
    -6.3846  -6.3771  -6.3302  -6.3022  -6.2520  -6.2267  -6.1276  -6.0319
    -5.9598  -5.9425  -5.9250  -5.8651  -5.8220  -5.7701  -5.7428  -5.7255
    -5.6732  -5.6509  -5.6231  -5.5745  -5.5506  -5.5074  -5.4579  -5.4340
    -5.4001  -5.3768  -5.3479  -5.3351  -5.3150  -5.2817  -5.2614  -5.2396
    -5.2221  -5.1813  -5.0884  -5.0480  -4.9898  -4.9279  -4.8893  -4.7877
    -4.7773  -4.7710  -4.7244  -4.7096  -4.6598  -4.6225  -4.5492  -4.5261
    -4.5011  -4.4600  -4.4124  -4.3985  -4.3308  -4.3045  -4.2827  -4.2607
    -4.2405  -4.1762  -4.1614  -4.1074  -4.0828  -4.0541  -4.0461  -4.0228
    -3.9862  -3.9714  -3.9548  -3.9176  -3.8898  -3.8515  -3.8450  -3.8258
    -3.7159  -3.6179  -3.5799  -3.5656  -3.5427  -3.5173  -3.5020  -3.4082
    -3.3337  -3.2909  -3.2733  -3.2580  -3.2371  -3.2216  -3.1692  -3.1611
    -3.0897  -3.0753  -3.0011  -2.9730  -2.7921  -2.4049  -2.2243  -1.9069
    -1.7230  -1.6812  -1.6714  -1.5247

     occupation numbers 
     1.0000   1.0000   1.0000   1.0000   1.0000   1.0000   1.0000   1.0000
     1.0000   1.0000   1.0000   1.0000   1.0000   1.0000   1.0000   1.0000
     1.0000   1.0000   1.0000   1.0000   1.0000   1.0000   1.0000   1.0000
     1.0000   1.0000   1.0000   1.0000   1.0000   1.0000   1.0000   1.0000
     1.0000   1.0000   1.0000   1.0000   1.0000   1.0000   1.0000   1.0000
     1.0000   1.0000   1.0000   1.0000   1.0000   1.0000   1.0000   1.0000
     1.0000   1.0000   1.0000   1.0000   1.0000   1.0000   1.0000   1.0000
     1.0000   1.0000   1.0000   1.0000   1.0000   1.0000   1.0000   1.0000
     1.0000   1.0000   1.0000   1.0000   1.0000   1.0000   1.0000   1.0000
     1.0000   1.0000   1.0000   1.0000   1.0000   1.0000   1.0000   1.0000
     1.0000   1.0000   1.0000   1.0000   1.0000   1.0000   1.0000   1.0000
     1.0000   1.0000   1.0000   1.0000   1.0000   1.0000   1.0000   1.0000
     1.0000   1.0000   1.0000   1.0000   1.0000   1.0000   1.0000   1.0000
     1.0000   1.0000   1.0000   1.0000   1.0000   1.0000   1.0000   1.0000
     1.0000   1.0000   1.0000   1.0000   1.0000   1.0000   1.0000   1.0000
     1.0000   1.0000   1.0000   1.0000   1.0000   1.0000   1.0000   1.0000
     1.0000   1.0000   1.0000   1.0000   1.0000   1.0000   1.0000   1.0000
     1.0000   1.0000   1.0000   1.0000   1.0000   1.0000   1.0000   1.0000
     1.0000   1.0000   1.0000   1.0000   1.0000   1.0000   1.0000   1.0000
     1.0000   1.0000   1.0000   1.0000   1.0000   1.0000   1.0000   1.0000
     1.0000   1.0000   1.0000   1.0000   1.0000   1.0000   1.0000   1.0000
     1.0000   1.0000   1.0000   1.0000   1.0000   1.0000   1.0000   1.0000
     1.0000   1.0000   1.0000   1.0000   1.0000   1.0000   1.0000   1.0000
     1.0000   1.0000   1.0000   1.0000   1.0000   1.0000   1.0000   1.0000
     1.0000   1.0000   1.0000   1.0000   1.0000   1.0000   1.0000   1.0000
     1.0000   1.0000   1.0000   1.0000   1.0000   1.0000   1.0000   1.0000
     1.0000   1.0000   1.0000   1.0000   1.0000   1.0000   1.0000   1.0000
     1.0000   1.0000   1.0000   1.0000   1.0000   1.0000   1.0000   1.0000
     1.0000   1.0000   1.0000   1.0000   1.0000   1.0000   1.0000   1.0000
     1.0000   1.0000   1.0000   1.0000   1.0000   1.0000   1.0000   1.0000
     1.0000   1.0000   1.0000   1.0000   1.0000   1.0000   1.0000   1.0000
     1.0000   1.0000   1.0000   1.0000   1.0000   1.0000   1.0000   1.0000
     1.0000   1.0000   1.0000   1.0000   1.0000   1.0000   1.0000   1.0000
     1.0000   1.0000   1.0000   1.0000   1.0000   1.0000   1.0000   1.0000
     1.0000   1.0000   1.0000   1.0000   1.0000   1.0000   1.0000   1.0000
     1.0000   1.0000   1.0000   1.0000

          k = 0.0000 0.0000 0.4016 ( 95145 PWs)   bands (ev):

   -59.5633 -59.5135 -59.4804 -59.4293 -59.4145 -59.3664 -59.3645 -59.3148
   -36.0754 -35.9956 -35.9316 -35.8814 -35.8484 -35.8263 -35.8099 -35.7630
   -35.7438 -35.7200 -35.7137 -35.6930 -35.6791 -35.6520 -35.6429 -35.6306
   -35.6268 -35.6232 -35.6017 -35.5662 -35.5437 -35.5136 -35.4800 -35.4307
   -24.3746 -24.2528 -24.0910 -23.9137 -23.8065 -23.7604 -23.7356 -23.7060
   -23.6509 -23.6444 -23.6223 -23.5808 -22.9230 -22.8291 -22.7724 -22.7057
   -22.4745 -22.2413 -22.0629 -21.8703 -21.7157 -21.6169 -21.4601 -21.4495
   -21.4196 -21.4097 -21.4017 -21.3858 -21.3761 -21.3667 -21.3514 -21.3462
   -21.3009 -21.2954 -19.2990 -19.1999 -19.1400 -19.0729 -19.0706 -18.9684
   -18.9088 -18.8422 -18.4010 -18.1073 -17.9166 -17.8764 -17.8634 -17.8468
   -16.7520 -16.5521 -16.4118 -16.4092 -16.2532 -16.1789 -16.1276 -15.8794
   -15.6446 -15.6361 -15.6231 -15.5782 -14.2047 -13.9116 -13.7199 -13.7117
   -13.6765 -13.6622 -13.6577 -13.4053 -13.1931 -13.1458 -13.1320 -13.0735
   -11.8113 -11.5350 -11.4981 -11.3654 -11.3227 -11.2934 -11.2686 -11.2349
   -11.0484 -10.9976 -10.9480 -10.9288 -10.3428 -10.0841  -9.9875  -9.8984
    -9.8484  -9.7871  -9.7460  -9.5812  -9.4498  -9.3920  -9.3608  -9.3327
    -9.3028  -9.2562  -9.2349  -9.2197  -9.1828  -9.1559  -9.0991  -9.0528
    -9.0438  -9.0123  -8.9491  -8.9140  -8.8844  -8.8557  -8.8263  -8.8031
    -8.7687  -8.7541  -8.6696  -8.6556  -8.6396  -8.6059  -8.5601  -8.5120
    -8.4185  -8.3923  -8.3537  -8.3265  -8.2519  -8.2430  -8.2121  -8.1907
    -8.1332  -8.1053  -8.0913  -7.9162  -7.7897  -7.7252  -7.6746  -7.6641
    -7.6033  -7.5918  -7.5784  -7.4955  -7.4386  -7.4105  -7.2869  -7.2486
    -7.0975  -7.0866  -7.0824  -7.0214  -6.9669  -6.6662  -6.5392  -6.4012
    -6.3794  -6.3643  -6.3308  -6.3115  -6.2566  -6.2201  -6.1250  -6.0221
    -5.9604  -5.9410  -5.9221  -5.8757  -5.8197  -5.7729  -5.7418  -5.7210
    -5.6776  -5.6536  -5.6221  -5.5751  -5.5607  -5.4856  -5.4500  -5.4387
    -5.4141  -5.3794  -5.3546  -5.3413  -5.3138  -5.2877  -5.2566  -5.2338
    -5.1954  -5.1428  -5.1085  -5.0446  -5.0071  -4.9288  -4.8875  -4.8121
    -4.7825  -4.7746  -4.7574  -4.7361  -4.6746  -4.5871  -4.5562  -4.5228
    -4.5028  -4.4425  -4.4028  -4.3704  -4.3285  -4.3023  -4.2788  -4.2666
    -4.1935  -4.1743  -4.1658  -4.1186  -4.0771  -4.0444  -4.0304  -4.0202
    -4.0171  -3.9597  -3.9505  -3.9369  -3.8987  -3.8774  -3.8447  -3.8277
    -3.7257  -3.6221  -3.5908  -3.5791  -3.5507  -3.5277  -3.4654  -3.3922
    -3.3317  -3.3085  -3.2640  -3.2503  -3.2351  -3.2221  -3.1713  -3.1603
    -3.0906  -3.0740  -3.0006  -2.9738  -2.7930  -2.4049  -2.2245  -1.9071
    -1.7229  -1.6815  -1.6715  -1.5250

     occupation numbers 
     1.0000   1.0000   1.0000   1.0000   1.0000   1.0000   1.0000   1.0000
     1.0000   1.0000   1.0000   1.0000   1.0000   1.0000   1.0000   1.0000
     1.0000   1.0000   1.0000   1.0000   1.0000   1.0000   1.0000   1.0000
     1.0000   1.0000   1.0000   1.0000   1.0000   1.0000   1.0000   1.0000
     1.0000   1.0000   1.0000   1.0000   1.0000   1.0000   1.0000   1.0000
     1.0000   1.0000   1.0000   1.0000   1.0000   1.0000   1.0000   1.0000
     1.0000   1.0000   1.0000   1.0000   1.0000   1.0000   1.0000   1.0000
     1.0000   1.0000   1.0000   1.0000   1.0000   1.0000   1.0000   1.0000
     1.0000   1.0000   1.0000   1.0000   1.0000   1.0000   1.0000   1.0000
     1.0000   1.0000   1.0000   1.0000   1.0000   1.0000   1.0000   1.0000
     1.0000   1.0000   1.0000   1.0000   1.0000   1.0000   1.0000   1.0000
     1.0000   1.0000   1.0000   1.0000   1.0000   1.0000   1.0000   1.0000
     1.0000   1.0000   1.0000   1.0000   1.0000   1.0000   1.0000   1.0000
     1.0000   1.0000   1.0000   1.0000   1.0000   1.0000   1.0000   1.0000
     1.0000   1.0000   1.0000   1.0000   1.0000   1.0000   1.0000   1.0000
     1.0000   1.0000   1.0000   1.0000   1.0000   1.0000   1.0000   1.0000
     1.0000   1.0000   1.0000   1.0000   1.0000   1.0000   1.0000   1.0000
     1.0000   1.0000   1.0000   1.0000   1.0000   1.0000   1.0000   1.0000
     1.0000   1.0000   1.0000   1.0000   1.0000   1.0000   1.0000   1.0000
     1.0000   1.0000   1.0000   1.0000   1.0000   1.0000   1.0000   1.0000
     1.0000   1.0000   1.0000   1.0000   1.0000   1.0000   1.0000   1.0000
     1.0000   1.0000   1.0000   1.0000   1.0000   1.0000   1.0000   1.0000
     1.0000   1.0000   1.0000   1.0000   1.0000   1.0000   1.0000   1.0000
     1.0000   1.0000   1.0000   1.0000   1.0000   1.0000   1.0000   1.0000
     1.0000   1.0000   1.0000   1.0000   1.0000   1.0000   1.0000   1.0000
     1.0000   1.0000   1.0000   1.0000   1.0000   1.0000   1.0000   1.0000
     1.0000   1.0000   1.0000   1.0000   1.0000   1.0000   1.0000   1.0000
     1.0000   1.0000   1.0000   1.0000   1.0000   1.0000   1.0000   1.0000
     1.0000   1.0000   1.0000   1.0000   1.0000   1.0000   1.0000   1.0000
     1.0000   1.0000   1.0000   1.0000   1.0000   1.0000   1.0000   1.0000
     1.0000   1.0000   1.0000   1.0000   1.0000   1.0000   1.0000   1.0000
     1.0000   1.0000   1.0000   1.0000   1.0000   1.0000   1.0000   1.0000
     1.0000   1.0000   1.0000   1.0000   1.0000   1.0000   1.0000   1.0000
     1.0000   1.0000   1.0000   1.0000   1.0000   1.0000   1.0000   1.0000
     1.0000   1.0000   1.0000   1.0000   1.0000   1.0000   1.0000   1.0000
     1.0000   1.0000   1.0000   1.0000

          k = 0.0000 0.3601 0.2008 ( 95125 PWs)   bands (ev):

   -59.5633 -59.5135 -59.4804 -59.4293 -59.4145 -59.3664 -59.3645 -59.3148
   -36.0754 -35.9956 -35.9316 -35.8814 -35.8484 -35.8263 -35.8099 -35.7630
   -35.7438 -35.7200 -35.7137 -35.6930 -35.6791 -35.6520 -35.6429 -35.6306
   -35.6268 -35.6232 -35.6017 -35.5662 -35.5437 -35.5136 -35.4800 -35.4307
   -24.3746 -24.2528 -24.0910 -23.9137 -23.8065 -23.7603 -23.7356 -23.7061
   -23.6509 -23.6440 -23.6225 -23.5808 -22.9230 -22.8291 -22.7724 -22.7057
   -22.4745 -22.2413 -22.0629 -21.8703 -21.7157 -21.6170 -21.4601 -21.4495
   -21.4197 -21.4096 -21.4017 -21.3859 -21.3760 -21.3667 -21.3515 -21.3461
   -21.3009 -21.2955 -19.2990 -19.1999 -19.1400 -19.0729 -19.0706 -18.9684
   -18.9088 -18.8422 -18.4010 -18.1073 -17.9165 -17.8764 -17.8634 -17.8469
   -16.7520 -16.5520 -16.4117 -16.4094 -16.2532 -16.1788 -16.1276 -15.8794
   -15.6441 -15.6334 -15.6259 -15.5788 -14.2047 -13.9117 -13.7199 -13.7116
   -13.6766 -13.6624 -13.6575 -13.4051 -13.1812 -13.1573 -13.1257 -13.0810
   -11.8120 -11.5359 -11.4939 -11.3580 -11.3355 -11.2945 -11.2631 -11.2344
   -11.0333 -10.9844 -10.9649 -10.9442 -10.3500 -10.0671  -9.9795  -9.9069
    -9.8358  -9.7968  -9.7619  -9.5498  -9.4574  -9.4116  -9.3915  -9.3193
    -9.2902  -9.2789  -9.2397  -9.1840  -9.1728  -9.1482  -9.1003  -9.0708
    -9.0381  -9.0121  -8.9500  -8.9342  -8.8780  -8.8527  -8.8292  -8.8012
    -8.7698  -8.7266  -8.7162  -8.6565  -8.6296  -8.5898  -8.5585  -8.4990
    -8.4111  -8.3853  -8.3790  -8.3181  -8.2646  -8.2445  -8.2154  -8.1862
    -8.1421  -8.1075  -8.0797  -7.9152  -7.7906  -7.7239  -7.6601  -7.6482
    -7.6136  -7.6014  -7.5904  -7.4896  -7.4416  -7.4070  -7.2864  -7.2512
    -7.0966  -7.0878  -7.0826  -7.0210  -6.9680  -6.6758  -6.5193  -6.4009
    -6.3868  -6.3627  -6.3402  -6.3044  -6.2608  -6.2221  -6.1240  -6.0257
    -5.9611  -5.9361  -5.9256  -5.8749  -5.8169  -5.7713  -5.7295  -5.7158
    -5.6758  -5.6557  -5.6446  -5.5676  -5.5460  -5.4933  -5.4438  -5.4316
    -5.4155  -5.3918  -5.3460  -5.3349  -5.3075  -5.2867  -5.2750  -5.2396
    -5.2106  -5.1641  -5.0993  -5.0493  -4.9898  -4.9376  -4.9044  -4.7978
    -4.7888  -4.7637  -4.7368  -4.7139  -4.6742  -4.5826  -4.5708  -4.5277
    -4.5035  -4.4441  -4.3882  -4.3797  -4.3352  -4.2987  -4.2670  -4.2657
    -4.2238  -4.1878  -4.1657  -4.1065  -4.0923  -4.0480  -4.0373  -4.0315
    -4.0001  -3.9629  -3.9466  -3.9217  -3.9000  -3.8640  -3.8419  -3.8267
    -3.7199  -3.6188  -3.6064  -3.5630  -3.5504  -3.5294  -3.4730  -3.4160
    -3.3252  -3.2977  -3.2693  -3.2527  -3.2369  -3.2228  -3.1496  -3.1361
    -3.0966  -3.0802  -3.0092  -2.9879  -2.7918  -2.4052  -2.2246  -1.9073
    -1.7224  -1.6817  -1.6724  -1.5252

     occupation numbers 
     1.0000   1.0000   1.0000   1.0000   1.0000   1.0000   1.0000   1.0000
     1.0000   1.0000   1.0000   1.0000   1.0000   1.0000   1.0000   1.0000
     1.0000   1.0000   1.0000   1.0000   1.0000   1.0000   1.0000   1.0000
     1.0000   1.0000   1.0000   1.0000   1.0000   1.0000   1.0000   1.0000
     1.0000   1.0000   1.0000   1.0000   1.0000   1.0000   1.0000   1.0000
     1.0000   1.0000   1.0000   1.0000   1.0000   1.0000   1.0000   1.0000
     1.0000   1.0000   1.0000   1.0000   1.0000   1.0000   1.0000   1.0000
     1.0000   1.0000   1.0000   1.0000   1.0000   1.0000   1.0000   1.0000
     1.0000   1.0000   1.0000   1.0000   1.0000   1.0000   1.0000   1.0000
     1.0000   1.0000   1.0000   1.0000   1.0000   1.0000   1.0000   1.0000
     1.0000   1.0000   1.0000   1.0000   1.0000   1.0000   1.0000   1.0000
     1.0000   1.0000   1.0000   1.0000   1.0000   1.0000   1.0000   1.0000
     1.0000   1.0000   1.0000   1.0000   1.0000   1.0000   1.0000   1.0000
     1.0000   1.0000   1.0000   1.0000   1.0000   1.0000   1.0000   1.0000
     1.0000   1.0000   1.0000   1.0000   1.0000   1.0000   1.0000   1.0000
     1.0000   1.0000   1.0000   1.0000   1.0000   1.0000   1.0000   1.0000
     1.0000   1.0000   1.0000   1.0000   1.0000   1.0000   1.0000   1.0000
     1.0000   1.0000   1.0000   1.0000   1.0000   1.0000   1.0000   1.0000
     1.0000   1.0000   1.0000   1.0000   1.0000   1.0000   1.0000   1.0000
     1.0000   1.0000   1.0000   1.0000   1.0000   1.0000   1.0000   1.0000
     1.0000   1.0000   1.0000   1.0000   1.0000   1.0000   1.0000   1.0000
     1.0000   1.0000   1.0000   1.0000   1.0000   1.0000   1.0000   1.0000
     1.0000   1.0000   1.0000   1.0000   1.0000   1.0000   1.0000   1.0000
     1.0000   1.0000   1.0000   1.0000   1.0000   1.0000   1.0000   1.0000
     1.0000   1.0000   1.0000   1.0000   1.0000   1.0000   1.0000   1.0000
     1.0000   1.0000   1.0000   1.0000   1.0000   1.0000   1.0000   1.0000
     1.0000   1.0000   1.0000   1.0000   1.0000   1.0000   1.0000   1.0000
     1.0000   1.0000   1.0000   1.0000   1.0000   1.0000   1.0000   1.0000
     1.0000   1.0000   1.0000   1.0000   1.0000   1.0000   1.0000   1.0000
     1.0000   1.0000   1.0000   1.0000   1.0000   1.0000   1.0000   1.0000
     1.0000   1.0000   1.0000   1.0000   1.0000   1.0000   1.0000   1.0000
     1.0000   1.0000   1.0000   1.0000   1.0000   1.0000   1.0000   1.0000
     1.0000   1.0000   1.0000   1.0000   1.0000   1.0000   1.0000   1.0000
     1.0000   1.0000   1.0000   1.0000   1.0000   1.0000   1.0000   1.0000
     1.0000   1.0000   1.0000   1.0000   1.0000   1.0000   1.0000   1.0000
     1.0000   1.0000   1.0000   1.0000

          k = 0.0000 0.3601 0.6023 ( 95149 PWs)   bands (ev):

   -59.5633 -59.5135 -59.4804 -59.4293 -59.4145 -59.3664 -59.3645 -59.3148
   -36.0754 -35.9956 -35.9316 -35.8814 -35.8484 -35.8263 -35.8099 -35.7630
   -35.7438 -35.7200 -35.7137 -35.6930 -35.6791 -35.6520 -35.6429 -35.6306
   -35.6268 -35.6232 -35.6017 -35.5662 -35.5437 -35.5136 -35.4800 -35.4307
   -24.3746 -24.2528 -24.0910 -23.9137 -23.8065 -23.7603 -23.7356 -23.7061
   -23.6509 -23.6440 -23.6225 -23.5808 -22.9230 -22.8291 -22.7724 -22.7057
   -22.4745 -22.2413 -22.0629 -21.8703 -21.7157 -21.6169 -21.4601 -21.4495
   -21.4197 -21.4096 -21.4017 -21.3859 -21.3760 -21.3669 -21.3514 -21.3461
   -21.3009 -21.2955 -19.2990 -19.1999 -19.1400 -19.0729 -19.0706 -18.9684
   -18.9088 -18.8422 -18.4010 -18.1073 -17.9165 -17.8764 -17.8634 -17.8469
   -16.7520 -16.5520 -16.4117 -16.4094 -16.2532 -16.1789 -16.1276 -15.8794
   -15.6441 -15.6334 -15.6259 -15.5788 -14.2047 -13.9116 -13.7199 -13.7117
   -13.6766 -13.6623 -13.6574 -13.4049 -13.1821 -13.1570 -13.1260 -13.0810
   -11.8119 -11.5345 -11.4957 -11.3593 -11.3325 -11.2946 -11.2598 -11.2261
   -11.0365 -11.0141 -10.9663 -10.9289 -10.3342 -10.0637  -9.9985  -9.8904
    -9.8536  -9.7911  -9.7617  -9.5647  -9.4584  -9.4232  -9.3632  -9.3240
    -9.2860  -9.2808  -9.2315  -9.1816  -9.1688  -9.1288  -9.1074  -9.0638
    -9.0454  -9.0147  -8.9689  -8.9340  -8.8692  -8.8517  -8.8276  -8.8063
    -8.7655  -8.7559  -8.7141  -8.6579  -8.6274  -8.5998  -8.5469  -8.5004
    -8.4276  -8.3807  -8.3446  -8.3204  -8.2645  -8.2478  -8.2045  -8.1795
    -8.1434  -8.1232  -8.0880  -7.9151  -7.7822  -7.7294  -7.6597  -7.6464
    -7.6139  -7.6013  -7.5920  -7.4903  -7.4414  -7.4067  -7.2869  -7.2511
    -7.0965  -7.0868  -7.0836  -7.0216  -6.9671  -6.6660  -6.5393  -6.4032
    -6.3762  -6.3609  -6.3407  -6.3071  -6.2638  -6.2191  -6.1233  -6.0206
    -5.9590  -5.9416  -5.9221  -5.8782  -5.8183  -5.7717  -5.7235  -5.7163
    -5.6832  -5.6578  -5.6357  -5.5684  -5.5485  -5.4768  -5.4537  -5.4304
    -5.4144  -5.3938  -5.3524  -5.3454  -5.3210  -5.2781  -5.2607  -5.2432
    -5.2067  -5.1380  -5.0988  -5.0496  -5.0032  -4.9443  -4.8997  -4.8061
    -4.7951  -4.7702  -4.7521  -4.7256  -4.6780  -4.5783  -4.5556  -4.5193
    -4.5131  -4.4309  -4.3891  -4.3656  -4.3327  -4.2996  -4.2690  -4.2611
    -4.2030  -4.1906  -4.1588  -4.1122  -4.0939  -4.0529  -4.0333  -4.0246
    -4.0193  -3.9587  -3.9431  -3.9332  -3.9064  -3.8684  -3.8364  -3.8259
    -3.7238  -3.6323  -3.6056  -3.5699  -3.5573  -3.5225  -3.4666  -3.3973
    -3.3270  -3.3125  -3.2625  -3.2481  -3.2376  -3.2213  -3.1507  -3.1383
    -3.0944  -3.0792  -3.0091  -2.9884  -2.7926  -2.4053  -2.2245  -1.9075
    -1.7224  -1.6816  -1.6725  -1.5255

     occupation numbers 
     1.0000   1.0000   1.0000   1.0000   1.0000   1.0000   1.0000   1.0000
     1.0000   1.0000   1.0000   1.0000   1.0000   1.0000   1.0000   1.0000
     1.0000   1.0000   1.0000   1.0000   1.0000   1.0000   1.0000   1.0000
     1.0000   1.0000   1.0000   1.0000   1.0000   1.0000   1.0000   1.0000
     1.0000   1.0000   1.0000   1.0000   1.0000   1.0000   1.0000   1.0000
     1.0000   1.0000   1.0000   1.0000   1.0000   1.0000   1.0000   1.0000
     1.0000   1.0000   1.0000   1.0000   1.0000   1.0000   1.0000   1.0000
     1.0000   1.0000   1.0000   1.0000   1.0000   1.0000   1.0000   1.0000
     1.0000   1.0000   1.0000   1.0000   1.0000   1.0000   1.0000   1.0000
     1.0000   1.0000   1.0000   1.0000   1.0000   1.0000   1.0000   1.0000
     1.0000   1.0000   1.0000   1.0000   1.0000   1.0000   1.0000   1.0000
     1.0000   1.0000   1.0000   1.0000   1.0000   1.0000   1.0000   1.0000
     1.0000   1.0000   1.0000   1.0000   1.0000   1.0000   1.0000   1.0000
     1.0000   1.0000   1.0000   1.0000   1.0000   1.0000   1.0000   1.0000
     1.0000   1.0000   1.0000   1.0000   1.0000   1.0000   1.0000   1.0000
     1.0000   1.0000   1.0000   1.0000   1.0000   1.0000   1.0000   1.0000
     1.0000   1.0000   1.0000   1.0000   1.0000   1.0000   1.0000   1.0000
     1.0000   1.0000   1.0000   1.0000   1.0000   1.0000   1.0000   1.0000
     1.0000   1.0000   1.0000   1.0000   1.0000   1.0000   1.0000   1.0000
     1.0000   1.0000   1.0000   1.0000   1.0000   1.0000   1.0000   1.0000
     1.0000   1.0000   1.0000   1.0000   1.0000   1.0000   1.0000   1.0000
     1.0000   1.0000   1.0000   1.0000   1.0000   1.0000   1.0000   1.0000
     1.0000   1.0000   1.0000   1.0000   1.0000   1.0000   1.0000   1.0000
     1.0000   1.0000   1.0000   1.0000   1.0000   1.0000   1.0000   1.0000
     1.0000   1.0000   1.0000   1.0000   1.0000   1.0000   1.0000   1.0000
     1.0000   1.0000   1.0000   1.0000   1.0000   1.0000   1.0000   1.0000
     1.0000   1.0000   1.0000   1.0000   1.0000   1.0000   1.0000   1.0000
     1.0000   1.0000   1.0000   1.0000   1.0000   1.0000   1.0000   1.0000
     1.0000   1.0000   1.0000   1.0000   1.0000   1.0000   1.0000   1.0000
     1.0000   1.0000   1.0000   1.0000   1.0000   1.0000   1.0000   1.0000
     1.0000   1.0000   1.0000   1.0000   1.0000   1.0000   1.0000   1.0000
     1.0000   1.0000   1.0000   1.0000   1.0000   1.0000   1.0000   1.0000
     1.0000   1.0000   1.0000   1.0000   1.0000   1.0000   1.0000   1.0000
     1.0000   1.0000   1.0000   1.0000   1.0000   1.0000   1.0000   1.0000
     1.0000   1.0000   1.0000   1.0000   1.0000   1.0000   1.0000   1.0000
     1.0000   1.0000   1.0000   1.0000

          k = 0.0000 0.3601-0.2008 ( 95125 PWs)   bands (ev):

   -59.5633 -59.5135 -59.4804 -59.4293 -59.4145 -59.3664 -59.3645 -59.3148
   -36.0754 -35.9956 -35.9316 -35.8814 -35.8484 -35.8263 -35.8099 -35.7630
   -35.7438 -35.7200 -35.7137 -35.6930 -35.6791 -35.6520 -35.6429 -35.6306
   -35.6268 -35.6232 -35.6017 -35.5662 -35.5437 -35.5136 -35.4800 -35.4307
   -24.3746 -24.2528 -24.0910 -23.9137 -23.8065 -23.7603 -23.7356 -23.7061
   -23.6509 -23.6440 -23.6225 -23.5808 -22.9230 -22.8291 -22.7724 -22.7057
   -22.4745 -22.2413 -22.0629 -21.8703 -21.7157 -21.6169 -21.4601 -21.4495
   -21.4198 -21.4096 -21.4016 -21.3858 -21.3760 -21.3669 -21.3514 -21.3461
   -21.3009 -21.2955 -19.2990 -19.1999 -19.1400 -19.0729 -19.0706 -18.9684
   -18.9088 -18.8422 -18.4010 -18.1073 -17.9165 -17.8764 -17.8634 -17.8469
   -16.7521 -16.5520 -16.4117 -16.4093 -16.2532 -16.1789 -16.1276 -15.8794
   -15.6441 -15.6334 -15.6259 -15.5788 -14.2047 -13.9117 -13.7183 -13.7134
   -13.6766 -13.6623 -13.6574 -13.4050 -13.1811 -13.1574 -13.1259 -13.0810
   -11.8121 -11.5356 -11.4961 -11.3553 -11.3341 -11.2949 -11.2632 -11.2350
   -11.0237 -10.9952 -10.9653 -10.9445 -10.3501 -10.0659  -9.9758  -9.9085
    -9.8543  -9.7750  -9.7499  -9.5762  -9.4706  -9.4145  -9.3692  -9.3163
    -9.2851  -9.2745  -9.2397  -9.1890  -9.1762  -9.1578  -9.1019  -9.0575
    -9.0427  -9.0114  -8.9611  -8.9223  -8.8800  -8.8502  -8.8245  -8.7976
    -8.7721  -8.7481  -8.7075  -8.6589  -8.6182  -8.6025  -8.5369  -8.5038
    -8.4383  -8.3864  -8.3514  -8.3173  -8.2622  -8.2493  -8.2110  -8.1824
    -8.1458  -8.1101  -8.0913  -7.9142  -7.7879  -7.7230  -7.6606  -7.6481
    -7.6149  -7.6021  -7.5881  -7.4901  -7.4414  -7.4068  -7.2871  -7.2507
    -7.0966  -7.0873  -7.0831  -7.0214  -6.9692  -6.6646  -6.5354  -6.4030
    -6.3756  -6.3656  -6.3368  -6.3052  -6.2641  -6.2231  -6.1235  -6.0262
    -5.9586  -5.9453  -5.9233  -5.8679  -5.8191  -5.7688  -5.7311  -5.7125
    -5.6823  -5.6595  -5.6293  -5.5699  -5.5445  -5.4870  -5.4489  -5.4377
    -5.4007  -5.3814  -5.3624  -5.3443  -5.3375  -5.2880  -5.2537  -5.2441
    -5.2197  -5.1381  -5.0878  -5.0560  -5.0009  -4.9343  -4.8971  -4.8055
    -4.7870  -4.7627  -4.7523  -4.7075  -4.6726  -4.6013  -4.5513  -4.5268
    -4.4932  -4.4328  -4.4014  -4.3858  -4.3230  -4.3034  -4.2823  -4.2568
    -4.2294  -4.1760  -4.1600  -4.1180  -4.0923  -4.0586  -4.0370  -4.0265
    -4.0147  -3.9524  -3.9401  -3.9291  -3.8984  -3.8635  -3.8373  -3.8201
    -3.7167  -3.6295  -3.6126  -3.5687  -3.5423  -3.5236  -3.4744  -3.4070
    -3.3293  -3.3029  -3.2640  -3.2545  -3.2380  -3.2220  -3.1469  -3.1415
    -3.0896  -3.0852  -3.0092  -2.9871  -2.7928  -2.4052  -2.2242  -1.9074
    -1.7224  -1.6812  -1.6724  -1.5255

     occupation numbers 
     1.0000   1.0000   1.0000   1.0000   1.0000   1.0000   1.0000   1.0000
     1.0000   1.0000   1.0000   1.0000   1.0000   1.0000   1.0000   1.0000
     1.0000   1.0000   1.0000   1.0000   1.0000   1.0000   1.0000   1.0000
     1.0000   1.0000   1.0000   1.0000   1.0000   1.0000   1.0000   1.0000
     1.0000   1.0000   1.0000   1.0000   1.0000   1.0000   1.0000   1.0000
[...]
   -11.8127 -11.5358 -11.4957 -11.3545 -11.3227 -11.3052 -11.2611 -11.2397
   -11.0617 -10.9820 -10.9477 -10.9311 -10.3663 -10.0637  -9.9574  -9.9009
    -9.8576  -9.7862  -9.7628  -9.5627  -9.4659  -9.4197  -9.3519  -9.3230
    -9.3048  -9.2525  -9.2453  -9.2149  -9.1710  -9.1435  -9.0950  -9.0798
    -9.0600  -8.9997  -8.9340  -8.9154  -8.8911  -8.8634  -8.8202  -8.8002
    -8.7757  -8.7450  -8.7219  -8.6384  -8.6177  -8.5781  -8.5577  -8.5010
    -8.4240  -8.3912  -8.3732  -8.3154  -8.2624  -8.2437  -8.2203  -8.1993
    -8.1360  -8.1054  -8.0738  -7.9184  -7.7898  -7.7242  -7.6732  -7.6644
    -7.6028  -7.5959  -7.5768  -7.4945  -7.4386  -7.4113  -7.2869  -7.2479
    -7.0977  -7.0867  -7.0822  -7.0205  -6.9675  -6.6658  -6.5392  -6.4000
    -6.3768  -6.3659  -6.3332  -6.3118  -6.2589  -6.2194  -6.1237  -6.0322
    -5.9586  -5.9343  -5.9239  -5.8726  -5.8213  -5.7748  -5.7230  -5.7143
    -5.6790  -5.6628  -5.6279  -5.5731  -5.5526  -5.5135  -5.4499  -5.4260
    -5.3934  -5.3721  -5.3550  -5.3453  -5.3246  -5.2931  -5.2671  -5.2183
    -5.2043  -5.1677  -5.1047  -5.0404  -4.9909  -4.9452  -4.9030  -4.8068
    -4.7909  -4.7656  -4.7504  -4.7182  -4.6833  -4.6023  -4.5469  -4.5087
    -4.4881  -4.4484  -4.3774  -4.3631  -4.3319  -4.2975  -4.2695  -4.2556
    -4.2267  -4.1878  -4.1707  -4.1338  -4.0909  -4.0441  -4.0373  -4.0231
    -3.9883  -3.9702  -3.9594  -3.9410  -3.9067  -3.8767  -3.8397  -3.8192
    -3.7259  -3.6176  -3.5958  -3.5748  -3.5278  -3.5103  -3.4692  -3.4200
    -3.3471  -3.2921  -3.2647  -3.2460  -3.2344  -3.2250  -3.1651  -3.1604
    -3.0905  -3.0776  -3.0047  -2.9729  -2.7927  -2.4048  -2.2246  -1.9072
    -1.7228  -1.6813  -1.6715  -1.5248

     occupation numbers 
     1.0000   1.0000   1.0000   1.0000   1.0000   1.0000   1.0000   1.0000
     1.0000   1.0000   1.0000   1.0000   1.0000   1.0000   1.0000   1.0000
     1.0000   1.0000   1.0000   1.0000   1.0000   1.0000   1.0000   1.0000
     1.0000   1.0000   1.0000   1.0000   1.0000   1.0000   1.0000   1.0000
     1.0000   1.0000   1.0000   1.0000   1.0000   1.0000   1.0000   1.0000
     1.0000   1.0000   1.0000   1.0000   1.0000   1.0000   1.0000   1.0000
     1.0000   1.0000   1.0000   1.0000   1.0000   1.0000   1.0000   1.0000
     1.0000   1.0000   1.0000   1.0000   1.0000   1.0000   1.0000   1.0000
     1.0000   1.0000   1.0000   1.0000   1.0000   1.0000   1.0000   1.0000
     1.0000   1.0000   1.0000   1.0000   1.0000   1.0000   1.0000   1.0000
     1.0000   1.0000   1.0000   1.0000   1.0000   1.0000   1.0000   1.0000
     1.0000   1.0000   1.0000   1.0000   1.0000   1.0000   1.0000   1.0000
     1.0000   1.0000   1.0000   1.0000   1.0000   1.0000   1.0000   1.0000
     1.0000   1.0000   1.0000   1.0000   1.0000   1.0000   1.0000   1.0000
     1.0000   1.0000   1.0000   1.0000   1.0000   1.0000   1.0000   1.0000
     1.0000   1.0000   1.0000   1.0000   1.0000   1.0000   1.0000   1.0000
     1.0000   1.0000   1.0000   1.0000   1.0000   1.0000   1.0000   1.0000
     1.0000   1.0000   1.0000   1.0000   1.0000   1.0000   1.0000   1.0000
     1.0000   1.0000   1.0000   1.0000   1.0000   1.0000   1.0000   1.0000
     1.0000   1.0000   1.0000   1.0000   1.0000   1.0000   1.0000   1.0000
     1.0000   1.0000   1.0000   1.0000   1.0000   1.0000   1.0000   1.0000
     1.0000   1.0000   1.0000   1.0000   1.0000   1.0000   1.0000   1.0000
     1.0000   1.0000   1.0000   1.0000   1.0000   1.0000   1.0000   1.0000
     1.0000   1.0000   1.0000   1.0000   1.0000   1.0000   1.0000   1.0000
     1.0000   1.0000   1.0000   1.0000   1.0000   1.0000   1.0000   1.0000
     1.0000   1.0000   1.0000   1.0000   1.0000   1.0000   1.0000   1.0000
     1.0000   1.0000   1.0000   1.0000   1.0000   1.0000   1.0000   1.0000
     1.0000   1.0000   1.0000   1.0000   1.0000   1.0000   1.0000   1.0000
     1.0000   1.0000   1.0000   1.0000   1.0000   1.0000   1.0000   1.0000
     1.0000   1.0000   1.0000   1.0000   1.0000   1.0000   1.0000   1.0000
     1.0000   1.0000   1.0000   1.0000   1.0000   1.0000   1.0000   1.0000
     1.0000   1.0000   1.0000   1.0000   1.0000   1.0000   1.0000   1.0000
     1.0000   1.0000   1.0000   1.0000   1.0000   1.0000   1.0000   1.0000
     1.0000   1.0000   1.0000   1.0000   1.0000   1.0000   1.0000   1.0000
     1.0000   1.0000   1.0000   1.0000   1.0000   1.0000   1.0000   1.0000
     1.0000   1.0000   1.0000   1.0000

          k = 0.3333-0.2239 0.4016 ( 95178 PWs)   bands (ev):

   -59.5633 -59.5135 -59.4804 -59.4293 -59.4145 -59.3664 -59.3645 -59.3148
   -36.0754 -35.9956 -35.9316 -35.8814 -35.8484 -35.8263 -35.8099 -35.7630
   -35.7438 -35.7200 -35.7137 -35.6930 -35.6791 -35.6520 -35.6429 -35.6306
   -35.6268 -35.6232 -35.6017 -35.5662 -35.5437 -35.5136 -35.4800 -35.4307
   -24.3746 -24.2528 -24.0910 -23.9137 -23.8065 -23.7604 -23.7356 -23.7060
   -23.6510 -23.6443 -23.6223 -23.5808 -22.9230 -22.8292 -22.7724 -22.7057
   -22.4745 -22.2413 -22.0629 -21.8703 -21.7157 -21.6169 -21.4602 -21.4495
   -21.4196 -21.4098 -21.4016 -21.3859 -21.3759 -21.3671 -21.3512 -21.3462
   -21.3008 -21.2955 -19.2990 -19.1999 -19.1400 -19.0729 -19.0706 -18.9684
   -18.9088 -18.8422 -18.4010 -18.1073 -17.9166 -17.8764 -17.8635 -17.8468
   -16.7520 -16.5521 -16.4118 -16.4092 -16.2532 -16.1788 -16.1277 -15.8794
   -15.6447 -15.6361 -15.6231 -15.5782 -14.2047 -13.9117 -13.7195 -13.7116
   -13.6764 -13.6622 -13.6580 -13.4047 -13.1930 -13.1458 -13.1335 -13.0737
   -11.8124 -11.5348 -11.4925 -11.3669 -11.3227 -11.3011 -11.2534 -11.2185
   -11.0668 -11.0164 -10.9478 -10.9300 -10.3357 -10.0582  -9.9887  -9.9025
    -9.8712  -9.7763  -9.7327  -9.5890  -9.4869  -9.4177  -9.3458  -9.3189
    -9.2869  -9.2573  -9.2242  -9.2123  -9.1661  -9.1305  -9.1113  -9.0745
    -9.0545  -9.0003  -8.9529  -8.9115  -8.8853  -8.8642  -8.8174  -8.8055
    -8.7773  -8.7640  -8.7359  -8.6390  -8.6172  -8.5958  -8.5657  -8.4923
    -8.4153  -8.3883  -8.3552  -8.2978  -8.2537  -8.2426  -8.2208  -8.2040
    -8.1335  -8.1066  -8.0923  -7.9191  -7.7813  -7.7312  -7.6723  -7.6617
    -7.6052  -7.5962  -7.5774  -7.4957  -7.4382  -7.4113  -7.2873  -7.2484
    -7.0974  -7.0869  -7.0819  -7.0211  -6.9692  -6.6645  -6.5353  -6.4049
    -6.3770  -6.3607  -6.3332  -6.3171  -6.2611  -6.2219  -6.1225  -6.0211
    -5.9575  -5.9403  -5.9203  -5.8824  -5.8210  -5.7677  -5.7277  -5.7138
    -5.6795  -5.6573  -5.6196  -5.5730  -5.5584  -5.4826  -5.4659  -5.4202
    -5.4073  -5.3775  -5.3591  -5.3531  -5.3320  -5.3042  -5.2530  -5.2386
    -5.1845  -5.1296  -5.1209  -5.0442  -5.0103  -4.9475  -4.8982  -4.8006
    -4.7952  -4.7627  -4.7459  -4.7111  -4.6823  -4.6307  -4.5592  -4.5161
    -4.4936  -4.4184  -4.3906  -4.3578  -4.3221  -4.2955  -4.2785  -4.2417
    -4.2083  -4.1658  -4.1592  -4.1317  -4.0921  -4.0522  -4.0362  -4.0323
    -4.0092  -3.9799  -3.9635  -3.9366  -3.9101  -3.8611  -3.8337  -3.8235
    -3.7182  -3.6247  -3.6115  -3.5900  -3.5315  -3.5197  -3.4714  -3.3948
    -3.3431  -3.3032  -3.2629  -3.2454  -3.2307  -3.2154  -3.1666  -3.1612
    -3.0903  -3.0790  -3.0038  -2.9735  -2.7932  -2.4048  -2.2244  -1.9073
    -1.7228  -1.6816  -1.6716  -1.5251

     occupation numbers 
     1.0000   1.0000   1.0000   1.0000   1.0000   1.0000   1.0000   1.0000
     1.0000   1.0000   1.0000   1.0000   1.0000   1.0000   1.0000   1.0000
     1.0000   1.0000   1.0000   1.0000   1.0000   1.0000   1.0000   1.0000
     1.0000   1.0000   1.0000   1.0000   1.0000   1.0000   1.0000   1.0000
     1.0000   1.0000   1.0000   1.0000   1.0000   1.0000   1.0000   1.0000
     1.0000   1.0000   1.0000   1.0000   1.0000   1.0000   1.0000   1.0000
     1.0000   1.0000   1.0000   1.0000   1.0000   1.0000   1.0000   1.0000
     1.0000   1.0000   1.0000   1.0000   1.0000   1.0000   1.0000   1.0000
     1.0000   1.0000   1.0000   1.0000   1.0000   1.0000   1.0000   1.0000
     1.0000   1.0000   1.0000   1.0000   1.0000   1.0000   1.0000   1.0000
     1.0000   1.0000   1.0000   1.0000   1.0000   1.0000   1.0000   1.0000
     1.0000   1.0000   1.0000   1.0000   1.0000   1.0000   1.0000   1.0000
     1.0000   1.0000   1.0000   1.0000   1.0000   1.0000   1.0000   1.0000
     1.0000   1.0000   1.0000   1.0000   1.0000   1.0000   1.0000   1.0000
     1.0000   1.0000   1.0000   1.0000   1.0000   1.0000   1.0000   1.0000
     1.0000   1.0000   1.0000   1.0000   1.0000   1.0000   1.0000   1.0000
     1.0000   1.0000   1.0000   1.0000   1.0000   1.0000   1.0000   1.0000
     1.0000   1.0000   1.0000   1.0000   1.0000   1.0000   1.0000   1.0000
     1.0000   1.0000   1.0000   1.0000   1.0000   1.0000   1.0000   1.0000
     1.0000   1.0000   1.0000   1.0000   1.0000   1.0000   1.0000   1.0000
     1.0000   1.0000   1.0000   1.0000   1.0000   1.0000   1.0000   1.0000
     1.0000   1.0000   1.0000   1.0000   1.0000   1.0000   1.0000   1.0000
     1.0000   1.0000   1.0000   1.0000   1.0000   1.0000   1.0000   1.0000
     1.0000   1.0000   1.0000   1.0000   1.0000   1.0000   1.0000   1.0000
     1.0000   1.0000   1.0000   1.0000   1.0000   1.0000   1.0000   1.0000
     1.0000   1.0000   1.0000   1.0000   1.0000   1.0000   1.0000   1.0000
     1.0000   1.0000   1.0000   1.0000   1.0000   1.0000   1.0000   1.0000
     1.0000   1.0000   1.0000   1.0000   1.0000   1.0000   1.0000   1.0000
     1.0000   1.0000   1.0000   1.0000   1.0000   1.0000   1.0000   1.0000
     1.0000   1.0000   1.0000   1.0000   1.0000   1.0000   1.0000   1.0000
     1.0000   1.0000   1.0000   1.0000   1.0000   1.0000   1.0000   1.0000
     1.0000   1.0000   1.0000   1.0000   1.0000   1.0000   1.0000   1.0000
     1.0000   1.0000   1.0000   1.0000   1.0000   1.0000   1.0000   1.0000
     1.0000   1.0000   1.0000   1.0000   1.0000   1.0000   1.0000   1.0000
     1.0000   1.0000   1.0000   1.0000   1.0000   1.0000   1.0000   1.0000
     1.0000   1.0000   1.0000   1.0000

          k = 0.3333-0.2239-0.4016 ( 95178 PWs)   bands (ev):

   -59.5633 -59.5135 -59.4804 -59.4293 -59.4145 -59.3664 -59.3645 -59.3148
   -36.0754 -35.9956 -35.9316 -35.8814 -35.8484 -35.8263 -35.8099 -35.7630
   -35.7438 -35.7200 -35.7137 -35.6930 -35.6791 -35.6520 -35.6429 -35.6306
   -35.6268 -35.6232 -35.6017 -35.5662 -35.5437 -35.5136 -35.4800 -35.4307
   -24.3746 -24.2528 -24.0910 -23.9137 -23.8065 -23.7604 -23.7356 -23.7060
   -23.6510 -23.6443 -23.6223 -23.5808 -22.9230 -22.8292 -22.7724 -22.7057
   -22.4745 -22.2413 -22.0629 -21.8703 -21.7157 -21.6170 -21.4601 -21.4495
   -21.4197 -21.4098 -21.4016 -21.3859 -21.3759 -21.3671 -21.3512 -21.3462
   -21.3008 -21.2955 -19.2990 -19.1999 -19.1400 -19.0729 -19.0706 -18.9684
   -18.9088 -18.8422 -18.4010 -18.1073 -17.9166 -17.8764 -17.8635 -17.8468
   -16.7520 -16.5521 -16.4118 -16.4092 -16.2532 -16.1788 -16.1277 -15.8794
   -15.6447 -15.6361 -15.6231 -15.5782 -14.2047 -13.9117 -13.7196 -13.7116
   -13.6764 -13.6622 -13.6580 -13.4047 -13.1930 -13.1458 -13.1334 -13.0737
   -11.8124 -11.5357 -11.4909 -11.3678 -11.3227 -11.3002 -11.2550 -11.2192
   -11.0665 -11.0141 -10.9478 -10.9303 -10.3341 -10.0647  -9.9959  -9.8904
    -9.8612  -9.7756  -9.7591  -9.5557  -9.4915  -9.4314  -9.3425  -9.3205
    -9.2886  -9.2697  -9.2293  -9.1878  -9.1700  -9.1339  -9.1031  -9.0808
    -9.0498  -9.0088  -8.9393  -8.9175  -8.8840  -8.8712  -8.8264  -8.8080
    -8.7777  -8.7616  -8.7279  -8.6355  -8.6221  -8.5979  -8.5581  -8.4936
    -8.4125  -8.3897  -8.3569  -8.3012  -8.2516  -8.2417  -8.2268  -8.1900
    -8.1384  -8.1139  -8.0895  -7.9184  -7.7791  -7.7334  -7.6683  -7.6656
    -7.6044  -7.5954  -7.5792  -7.4955  -7.4383  -7.4112  -7.2866  -7.2484
    -7.0973  -7.0861  -7.0827  -7.0211  -6.9674  -6.6760  -6.5194  -6.4023
    -6.3883  -6.3609  -6.3329  -6.3152  -6.2600  -6.2206  -6.1246  -6.0215
    -5.9591  -5.9382  -5.9185  -5.8832  -5.8201  -5.7698  -5.7291  -5.7150
    -5.6768  -5.6529  -5.6316  -5.5699  -5.5540  -5.5002  -5.4389  -5.4268
    -5.4089  -5.3791  -5.3581  -5.3432  -5.3197  -5.2975  -5.2737  -5.2507
    -5.1888  -5.1321  -5.1048  -5.0511  -5.0151  -4.9534  -4.8979  -4.8025
    -4.7847  -4.7611  -4.7478  -4.7153  -4.6668  -4.6253  -4.5732  -4.5187
    -4.5083  -4.4109  -4.3817  -4.3468  -4.3245  -4.3000  -4.2662  -4.2395
    -4.2090  -4.1822  -4.1632  -4.1180  -4.0894  -4.0661  -4.0341  -4.0255
    -4.0106  -3.9846  -3.9613  -3.9365  -3.9120  -3.8627  -3.8367  -3.8286
    -3.7233  -3.6238  -3.6074  -3.5794  -3.5403  -3.5130  -3.4638  -3.4012
    -3.3446  -3.2997  -3.2660  -3.2485  -3.2273  -3.2185  -3.1651  -3.1611
    -3.0925  -3.0771  -3.0028  -2.9737  -2.7932  -2.4048  -2.2246  -1.9073
    -1.7229  -1.6815  -1.6716  -1.5251

     occupation numbers 
     1.0000   1.0000   1.0000   1.0000   1.0000   1.0000   1.0000   1.0000
     1.0000   1.0000   1.0000   1.0000   1.0000   1.0000   1.0000   1.0000
     1.0000   1.0000   1.0000   1.0000   1.0000   1.0000   1.0000   1.0000
     1.0000   1.0000   1.0000   1.0000   1.0000   1.0000   1.0000   1.0000
     1.0000   1.0000   1.0000   1.0000   1.0000   1.0000   1.0000   1.0000
     1.0000   1.0000   1.0000   1.0000   1.0000   1.0000   1.0000   1.0000
     1.0000   1.0000   1.0000   1.0000   1.0000   1.0000   1.0000   1.0000
     1.0000   1.0000   1.0000   1.0000   1.0000   1.0000   1.0000   1.0000
     1.0000   1.0000   1.0000   1.0000   1.0000   1.0000   1.0000   1.0000
     1.0000   1.0000   1.0000   1.0000   1.0000   1.0000   1.0000   1.0000
     1.0000   1.0000   1.0000   1.0000   1.0000   1.0000   1.0000   1.0000
     1.0000   1.0000   1.0000   1.0000   1.0000   1.0000   1.0000   1.0000
     1.0000   1.0000   1.0000   1.0000   1.0000   1.0000   1.0000   1.0000
     1.0000   1.0000   1.0000   1.0000   1.0000   1.0000   1.0000   1.0000
     1.0000   1.0000   1.0000   1.0000   1.0000   1.0000   1.0000   1.0000
     1.0000   1.0000   1.0000   1.0000   1.0000   1.0000   1.0000   1.0000
     1.0000   1.0000   1.0000   1.0000   1.0000   1.0000   1.0000   1.0000
     1.0000   1.0000   1.0000   1.0000   1.0000   1.0000   1.0000   1.0000
     1.0000   1.0000   1.0000   1.0000   1.0000   1.0000   1.0000   1.0000
     1.0000   1.0000   1.0000   1.0000   1.0000   1.0000   1.0000   1.0000
     1.0000   1.0000   1.0000   1.0000   1.0000   1.0000   1.0000   1.0000
     1.0000   1.0000   1.0000   1.0000   1.0000   1.0000   1.0000   1.0000
     1.0000   1.0000   1.0000   1.0000   1.0000   1.0000   1.0000   1.0000
     1.0000   1.0000   1.0000   1.0000   1.0000   1.0000   1.0000   1.0000
     1.0000   1.0000   1.0000   1.0000   1.0000   1.0000   1.0000   1.0000
     1.0000   1.0000   1.0000   1.0000   1.0000   1.0000   1.0000   1.0000
     1.0000   1.0000   1.0000   1.0000   1.0000   1.0000   1.0000   1.0000
     1.0000   1.0000   1.0000   1.0000   1.0000   1.0000   1.0000   1.0000
     1.0000   1.0000   1.0000   1.0000   1.0000   1.0000   1.0000   1.0000
     1.0000   1.0000   1.0000   1.0000   1.0000   1.0000   1.0000   1.0000
     1.0000   1.0000   1.0000   1.0000   1.0000   1.0000   1.0000   1.0000
     1.0000   1.0000   1.0000   1.0000   1.0000   1.0000   1.0000   1.0000
     1.0000   1.0000   1.0000   1.0000   1.0000   1.0000   1.0000   1.0000
     1.0000   1.0000   1.0000   1.0000   1.0000   1.0000   1.0000   1.0000
     1.0000   1.0000   1.0000   1.0000   1.0000   1.0000   1.0000   1.0000
     1.0000   1.0000   1.0000   1.0000

     highest occupied level (ev):    -1.5247

!    total energy              =   -3500.74951114 Ry
     estimated scf accuracy    <       0.00000048 Ry

     The total energy is the sum of the following terms:
     one-electron contribution =   -8482.13021231 Ry
     hartree contribution      =    4355.91507764 Ry
     xc contribution           =    -692.40554447 Ry
     ewald contribution        =    1956.83698046 Ry
     DFT-D3 Dispersion         =      -0.33333177 Ry
     one-center paw contrib.   =    -638.63248069 Ry
      -> PAW hartree energy AE =       0.00000000 Ry
      -> PAW hartree energy PS =       0.00000000 Ry
      -> PAW xc energy AE      =       0.00000000 Ry
      -> PAW xc energy PS      =       0.00000000 Ry
      -> total E_H with PAW    =    4355.91507764 Ry
      -> total E_XC with PAW   =    -692.40554447 Ry

     convergence has been achieved in  22 iterations

     Writing all to output data dir ./tmp/MIL125_NH2_convtest.save/ :
     XML data file, charge density, pseudopotentials, collected wavefunctions

     init_run     :    190.72s CPU    193.14s WALL (       1 calls)
     electrons    :  10261.22s CPU  10391.77s WALL (       1 calls)

     Called by init_run:
     wfcinit      :    188.67s CPU    190.83s WALL (       1 calls)
     wfcinit:atom :      0.20s CPU      0.21s WALL (      14 calls)
     wfcinit:wfcr :    186.67s CPU    188.80s WALL (      14 calls)
     potinit      :      0.31s CPU      0.34s WALL (       1 calls)
     hinit0       :      0.14s CPU      0.16s WALL (       1 calls)

     Called by electrons:
     c_bands      :   9486.95s CPU   9597.53s WALL (      22 calls)
     sum_band     :    745.04s CPU    760.98s WALL (      22 calls)
     v_of_rho     :      3.54s CPU      3.79s WALL (      23 calls)
     v_h          :      0.24s CPU      0.26s WALL (      23 calls)
     v_xc         :      3.29s CPU      3.53s WALL (      23 calls)
     newd         :     22.07s CPU     25.85s WALL (      23 calls)
     PAW_pot      :      3.13s CPU      3.14s WALL (      23 calls)
     mix_rho      :      0.59s CPU      0.65s WALL (      22 calls)
     energy_dftd3 :      0.68s CPU      0.68s WALL (       1 calls)

     Called by c_bands:
     init_us_2    :     18.19s CPU     18.36s WALL (     630 calls)
     cegterg      :   9463.26s CPU   9572.79s WALL (     308 calls)

     Called by sum_band:
     sum_band:wei :      0.00s CPU      0.00s WALL (      22 calls)
     sum_band:loo :    725.39s CPU    736.75s WALL (      22 calls)
     sum_band:buf :      1.63s CPU      2.10s WALL (     308 calls)
     sum_band:ini :      8.93s CPU      8.96s WALL (     308 calls)
     sum_band:cal :    563.87s CPU    566.17s WALL (     308 calls)
     sum_band:bec :      1.81s CPU      1.81s WALL (     308 calls)
     addusdens    :     19.30s CPU     23.83s WALL (      22 calls)
                                        0.00s GPU  (      22 calls)
     addusd:skk   :      0.58s CPU      0.99s WALL (     110 calls)
                                        0.00s GPU  (     110 calls)

     Called by *egterg:
     cdiaghg      :    358.91s CPU    365.68s WALL (    2144 calls)
     cegterg:over :   1122.41s CPU   1125.58s WALL (    1836 calls)
     cegterg:upda :    539.27s CPU    543.57s WALL (    1836 calls)
     cegterg:last :   1598.38s CPU   1605.26s WALL (     806 calls)
     cdiaghg:chol :     16.83s CPU     16.88s WALL (    2144 calls)
     cdiaghg:inve :      6.84s CPU      6.86s WALL (    2144 calls)
     cdiaghg:para :     98.75s CPU    100.73s WALL (    4288 calls)
     h_psi        :   4165.82s CPU   4236.39s WALL (    2158 calls)
     s_psi        :   1603.29s CPU   1607.39s WALL (    2158 calls)
     g_psi        :      1.85s CPU      1.86s WALL (    1836 calls)

     Called by h_psi:
     h_psi:calbec :   1755.67s CPU   1763.52s WALL (    2158 calls)
     vloc_psi     :    800.52s CPU    855.42s WALL (    2158 calls)
     add_vuspsi   :   1606.51s CPU   1610.84s WALL (    2158 calls)

     General routines
     calbec       :   2319.53s CPU   2329.68s WALL (    2466 calls)
     fft          :      2.23s CPU      2.47s WALL (     297 calls)
     ffts         :      0.10s CPU      0.11s WALL (      45 calls)
     fftw         :    749.99s CPU    798.75s WALL (  631276 calls)
     interpolate  :      0.24s CPU      0.26s WALL (      23 calls)

     Parallel routines

     PAW routines
     PAW_pot      :      3.13s CPU      3.14s WALL (      23 calls)

     PWSCF        :      2h54m CPU      2h56m WALL


   This run was terminated on:  15:32:32  10Apr2025            

=------------------------------------------------------------------------------=
   JOB DONE.
=------------------------------------------------------------------------------=
