--------------------------------------------------------------------------
WARNING: There was an error initializing an OpenFabrics device.

  Local host:   ga01
  Local device: mlx5_0
--------------------------------------------------------------------------

     Program PWSCF v.7.3.1 starts on 10Apr2025 at 21:27:50 

     This program is part of the open-source Quantum ESPRESSO suite
     for quantum simulation of materials; please cite
         "P. Giannozzi et al., J. Phys.:Condens. Matter 21 395502 (2009);
         "P. Giannozzi et al., J. Phys.:Condens. Matter 29 465901 (2017);
         "P. Giannozzi et al., J. Chem. Phys. 152 154105 (2020);
          URL http://www.quantum-espresso.org", 
     in publications or presentations arising from this work. More details at
     http://www.quantum-espresso.org/quote

     Parallel version (MPI), running on    31 processors

     MPI processes distributed on     1 nodes
     176859 MiB available memory on the printing compute node when the environment starts

     Waiting for input...
     Reading input from standard input

     Current dimensions of program PWSCF are:
     Max number of different atomic species (ntypx) = 10
     Max number of k-points (npk) =  40000
     Max angular momentum in pseudopotentials (lmaxx) =  4
     file C.pbe-n-kjpaw_psl.1.0.0.UPF: wavefunction(s)  2S 2P renormalized
     file O.pbe-n-kjpaw_psl.0.1.UPF: wavefunction(s)  2P renormalized

     R & G space division:  proc/nbgrp/npool/nimage =      31
     Subspace diagonalization in iterative solution of the eigenvalue problem:
     one sub-group per band group will be used
     custom distributed-memory algorithm (size of sub-group:  3*  3 procs)


     Parallelization info
     --------------------
     sticks:   dense  smooth     PW     G-vecs:    dense   smooth      PW
     Min        1120     538    134               135632    45113    5640
     Max        1121     539    135               135637    45115    5644
     Sum       34741   16689   4169              4204657  1398533  174895

     Using Slab Decomposition



     bravais-lattice index     =            0
     lattice parameter (alat)  =      30.7168  a.u.
     unit-cell volume          =   22271.6335 (a.u.)^3
     number of atoms/cell      =          124
     number of atomic types    =            5
     number of electrons       =       526.00
     number of Kohn-Sham states=          263
     kinetic-energy cutoff     =      60.0000  Ry
     charge density cutoff     =     500.0000  Ry
     scf convergence threshold =      1.0E-06
     mixing beta               =       0.2000
     number of iterations used =            8  plain     mixing
     energy convergence thresh.=      1.0E-04
     force convergence thresh. =      1.0E-03
     press convergence thresh. =      5.0E-01
     Exchange-correlation= SLA  PW   PBX  PBC
                           (   1   4   3   4   0   0   0)
     nstep                     =          300


     celldm(1)=  30.716808  celldm(2)=   0.000000  celldm(3)=   0.000000
     celldm(4)=   0.000000  celldm(5)=   0.000000  celldm(6)=   0.000000

     crystal axes: (cart. coord. in units of alat)
               a(1) = (   1.000000   0.000000   0.000000 )  
               a(2) = (  -0.378163   0.925739   0.000000 )  
               a(3) = (  -0.310919  -0.462870   0.830109 )  

     reciprocal axes: (cart. coord. in units 2 pi/alat)
               b(1) = (  1.000000  0.408499  0.602330 )  
               b(2) = ( -0.000000  1.080218  0.602330 )  
               b(3) = (  0.000000 -0.000000  1.204661 )  


     PseudoPot. # 1 for Ti read from file:
     /home/yongsang/Research/PSID_server_room/qe/[00]QE/qepseudo/SSSP_1.3.0_PBE_efficiency/ti_pbe_v1.4.uspp.F.UPF
     MD5 check sum: 88a00a6731bd790ddea75d31a80cb452
     Pseudo is Ultrasoft + core correction, Zval = 12.0
     Generated by new atomic code, or converted to UPF format
     Using radial grid of  851 points,  6 beta functions with: 
                l(1) =   0
                l(2) =   0
                l(3) =   1
                l(4) =   1
                l(5) =   2
                l(6) =   2
     Q(r) pseudized with  6 coefficients,  rinner =    1.000   1.000   1.000
                                                       1.000   1.000

     PseudoPot. # 2 for N  read from file:
     /home/yongsang/Research/PSID_server_room/qe/[00]QE/qepseudo/SSSP_1.3.0_PBE_efficiency/N.pbe-n-radius_5.UPF
     MD5 check sum: 16739722b17309cd8fe442a2ace49922
     Pseudo is Ultrasoft + core correction, Zval =  5.0
     Generated using "atomic" code by A. Dal Corso  v.5.1
     Using radial grid of 1085 points,  4 beta functions with: 
                l(1) =   0
                l(2) =   0
                l(3) =   1
                l(4) =   1
     Q(r) pseudized with 0 coefficients 


     PseudoPot. # 3 for C  read from file:
     /home/yongsang/Research/PSID_server_room/qe/[00]QE/qepseudo/SSSP_1.3.0_PBE_efficiency/C.pbe-n-kjpaw_psl.1.0.0.UPF
     MD5 check sum: 5d2aebdfa2cae82b50a7e79e9516da0f
     Pseudo is Projector augmented-wave + core cor, Zval =  4.0
     Generated using "atomic" code by A. Dal Corso  v.5.1
     Shape of augmentation charge: PSQ
     Using radial grid of 1073 points,  4 beta functions with: 
                l(1) =   0
                l(2) =   0
                l(3) =   1
                l(4) =   1
     Q(r) pseudized with 0 coefficients 


     PseudoPot. # 4 for H  read from file:
     /home/yongsang/Research/PSID_server_room/qe/[00]QE/qepseudo/SSSP_1.3.0_PBE_efficiency/H.pbe-rrkjus_psl.1.0.0.UPF
     MD5 check sum: f52b6d4d1c606e5624b1dc7b2218f220
     Pseudo is Ultrasoft, Zval =  1.0
     Generated using "atomic" code by A. Dal Corso  v.5.1
     Using radial grid of  929 points,  2 beta functions with: 
                l(1) =   0
                l(2) =   0
     Q(r) pseudized with 0 coefficients 


     PseudoPot. # 5 for O  read from file:
     /home/yongsang/Research/PSID_server_room/qe/[00]QE/qepseudo/SSSP_1.3.0_PBE_efficiency/O.pbe-n-kjpaw_psl.0.1.UPF
     MD5 check sum: 0234752ac141de4415c5fc33072bef88
     Pseudo is Projector augmented-wave + core cor, Zval =  6.0
     Generated using "atomic" code by A. Dal Corso  v.5.0.99 svn rev. 10869
     Shape of augmentation charge: BESSEL
     Using radial grid of 1095 points,  4 beta functions with: 
                l(1) =   0
                l(2) =   0
                l(3) =   1
                l(4) =   1
     Q(r) pseudized with 0 coefficients 


     atomic species   valence    mass     pseudopotential
     Ti               12.00    47.86700     Ti( 1.00)
     N                 5.00    14.00674     N ( 1.00)
     C                 4.00    12.01070     C ( 1.00)
     H                 1.00     1.00794     H ( 1.00)
     O                 6.00    15.99940     O ( 1.00)

     No symmetry found


                                    s                        frac. trans.

      isym =  1     identity                                     

 cryst.   s( 1) = (     1          0          0      )
                  (     0          1          0      )
                  (     0          0          1      )

 cart.    s( 1) = (  1.0000000  0.0000000  0.0000000 )
                  (  0.0000000  1.0000000  0.0000000 )
                  (  0.0000000  0.0000000  1.0000000 )


   Cartesian axes

     site n.     atom                  positions (alat units)
         1        Ti     tau(   1) = (  -0.2021167   0.1295411   0.7193992  )
         2        Ti     tau(   2) = (   0.5114246   0.3266534   0.1126418  )
         3        Ti     tau(   3) = (   0.0903394  -0.0598980   0.5868907  )
         4        Ti     tau(   4) = (   0.2143929   0.5120112   0.2381418  )
         5        Ti     tau(   5) = (   0.1085425   0.5961968   0.1129438  )
         6        Ti     tau(   6) = (   0.1927994  -0.1395335   0.7180367  )
         7        Ti     tau(   7) = (  -0.0913422   0.0575414   0.5856171  )
         8        Ti     tau(   8) = (   0.3940513   0.3936101   0.2377720  )
         9        H      tau(   9) = (   0.2266375   0.0989067   0.4496861  )
        10        H      tau(  10) = (  -0.0052980  -0.2482338   0.4532348  )
        11        H      tau(  11) = (   0.3189480   0.7106106   0.3791930  )
        12        H      tau(  12) = (  -0.1965501   0.3876410   0.6969965  )
        13        H      tau(  13) = (   0.5075176   0.0771018   0.1317547  )
        14        H      tau(  14) = (  -0.4330997   0.0351367   0.6970123  )
        15        H      tau(  15) = (   0.7421614   0.4267831   0.1318734  )
        16        H      tau(  16) = (   0.1963762  -0.3876316   0.6970064  )
        17        H      tau(  17) = (  -0.1204678   0.4989626   0.1318322  )
        18        H      tau(  18) = (   0.3020715   0.2109710   0.3826890  )
        19        H      tau(  19) = (   0.0064809   0.2463364   0.4502362  )
        20        H      tau(  20) = (  -0.2291074  -0.0990814   0.4515197  )
        21        H      tau(  21) = (   0.2095934   0.5322654   0.0095098  )
        22        H      tau(  22) = (   0.4131836   0.3942420   0.0092879  )
        23        H      tau(  23) = (   0.2209149  -0.1475100   0.3763610  )
        24        H      tau(  24) = (   0.0930345   0.6103231   0.4533078  )
        25        H      tau(  25) = (  -0.3768082   0.2531835   0.5661620  )
        26        H      tau(  26) = (   0.6870416   0.2094574   0.2656328  )
        27        H      tau(  27) = (  -0.2188302   0.1464959   0.3761730  )
        28        H      tau(  28) = (  -0.0661332   0.7155869   0.2638468  )
        29        H      tau(  29) = (   0.1129519   0.7996175   0.1659167  )
        30        H      tau(  30) = (   0.4895740  -0.0785235   0.1949986  )
        31        H      tau(  31) = (   0.3123289   0.4699101   0.1413587  )
        32        H      tau(  32) = (   0.0310108   0.0386299   0.6906782  )
        33        H      tau(  33) = (   0.4215354   0.0050943   0.6359743  )
        34        H      tau(  34) = (   0.4006103  -0.0945209   0.6745292  )
        35        H      tau(  35) = (   0.4800106   0.3001214   0.5066065  )
        36        H      tau(  36) = (   0.5071577   0.3802652   0.4381914  )
        37        H      tau(  37) = (   0.3844666  -0.3160880   0.6020792  )
        38        H      tau(  38) = (   0.3952336  -0.2097048   0.6159021  )
        39        H      tau(  39) = (   0.0778696   0.1149634   0.4829969  )
        40        H      tau(  40) = (   0.0806811   0.3584640   0.3839929  )
        41        H      tau(  41) = (   0.3873417   0.5790858   0.3527653  )
        42        H      tau(  42) = (  -0.4505139   0.5654235   0.3969344  )
        43        C      tau(  43) = (   0.5344571   0.2956315   0.2867210  )
        44        C      tau(  44) = (  -0.2442268   0.1557717   0.5413499  )
        45        C      tau(  45) = (   0.2466333  -0.1469248   0.5457716  )
        46        C      tau(  46) = (   0.0754764   0.6283892   0.2891273  )
        47        C      tau(  47) = (   0.5990366   0.2677570   0.3524729  )
        48        C      tau(  48) = (  -0.2901740   0.1930027   0.4813941  )
        49        C      tau(  49) = (   0.2950827  -0.1945894   0.4785682  )
        50        C      tau(  50) = (   0.0238057   0.6585301   0.3487609  )
        51        C      tau(  51) = (   0.5852222   0.2761886   0.4329343  )
        52        C      tau(  52) = (  -0.2741335   0.1830970   0.3907818  )
        53        C      tau(  53) = (   0.3575066  -0.2461539   0.4959350  )
        54        C      tau(  54) = (  -0.0554476   0.7034975   0.3299863  )
        55        C      tau(  55) = (   0.0396758   0.6496679   0.4390646  )
        56        C      tau(  56) = (   0.2752703  -0.1866995   0.3883402  )
        57        C      tau(  57) = (   0.6762036   0.2190015   0.3322138  )
        58        C      tau(  58) = (  -0.3628164   0.2471700   0.4999134  )
        59        C      tau(  59) = (   0.1980489   0.2944046   0.3795319  )
        60        C      tau(  60) = (   0.1111944   0.1645153   0.4537483  )
        61        C      tau(  61) = (   0.4213525   0.6310506   0.3772682  )
        62        C      tau(  62) = (  -0.1111550  -0.1633544   0.4567213  )
        63        C      tau(  63) = (   0.5071002   0.0950706  -0.0027094  )
        64        C      tau(  64) = (   0.1138014   0.8285775  -0.0038473  )
        65        C      tau(  65) = (   0.7263434   0.4195340  -0.0030293  )
        66        C      tau(  66) = (  -0.1045099   0.5054201  -0.0030632  )
        67        C      tau(  67) = (   0.2466471   0.3670025   0.3451098  )
        68        C      tau(  68) = (  -0.0705285  -0.1010819   0.4949823  )
        69        C      tau(  69) = (   0.5152059   0.1774061  -0.0007650  )
        70        C      tau(  70) = (   0.1078028   0.7459588  -0.0038507  )
        71        C      tau(  71) = (   0.6519178   0.3830813  -0.0022430  )
        72        C      tau(  72) = (  -0.0307970   0.5430520  -0.0021211  )
        73        C      tau(  73) = (   0.1135314   0.3021810   0.3976808  )
        74        C      tau(  74) = (   0.1945489   0.1551908   0.4346158  )
        75        C      tau(  75) = (   0.3840692   0.7025411   0.3916461  )
        76        C      tau(  76) = (  -0.0716568  -0.2449904   0.4379183  )
        77        C      tau(  77) = (   0.5060499   0.0415218   0.0731530  )
        78        C      tau(  78) = (  -0.1932625   0.4229694   0.7553905  )
        79        C      tau(  79) = (   0.7744681   0.4420676   0.0733937  )
        80        C      tau(  80) = (  -0.4648355   0.0185357   0.7552271  )
        81        C      tau(  81) = (   0.5106436   0.6218165   0.3953586  )
        82        C      tau(  82) = (  -0.1993429  -0.1565891   0.4305740  )
        83        C      tau(  83) = (   0.2374962   0.2192594   0.3969994  )
        84        C      tau(  84) = (   0.0707473   0.2379886   0.4350455  )
        85        C      tau(  85) = (   0.4641526  -0.0169245   0.7602503  )
        86        C      tau(  86) = (  -0.1529977   0.4839093   0.0733812  )
        87        C      tau(  87) = (   0.1930120  -0.4233972   0.7551681  )
        88        C      tau(  88) = (   0.1160105   0.8833299   0.0702033  )
        89        N      tau(  89) = (   0.1154402   0.8595970   0.1460397  )
        90        N      tau(  90) = (   0.4346803  -0.0407269   0.6788553  )
        91        N      tau(  91) = (   0.5185573   0.3230417   0.4623431  )
        92        N      tau(  92) = (   0.3880005  -0.2583683   0.5765400  )
        93        O      tau(  93) = (   0.5043331   0.3763977   0.2965296  )
        94        O      tau(  94) = (  -0.1831734   0.1020099   0.5195375  )
        95        O      tau(  95) = (   0.2517104  -0.1889554   0.6231894  )
        96        O      tau(  96) = (   0.0525623   0.6348241   0.2107703  )
        97        O      tau(  97) = (   0.1498569   0.5934839   0.3064416  )
        98        O      tau(  98) = (   0.1662401  -0.1268239   0.5163027  )
        99        O      tau(  99) = (   0.5732376   0.2913799   0.2114637  )
       100        O      tau( 100) = (  -0.2625711   0.1701469   0.6221886  )
       101        O      tau( 101) = (   0.4036664   0.2997369   0.1613623  )
       102        O      tau( 102) = (  -0.0871829   0.1429702   0.6737369  )
       103        O      tau( 103) = (   0.4820786   0.4352665   0.1634341  )
       104        O      tau( 104) = (  -0.1813947   0.0315088   0.6579565  )
       105        O      tau( 105) = (   0.0954349  -0.1579878   0.6514006  )
       106        O      tau( 106) = (   0.2187566   0.6121657   0.1663392  )
       107        O      tau( 107) = (   0.1713887  -0.0278176   0.6709977  )
       108        O      tau( 108) = (   0.1243428   0.4865618   0.1625783  )
       109        O      tau( 109) = (   0.3128746   0.3317159   0.3019177  )
       110        O      tau( 110) = (  -0.1069340  -0.0269198   0.5030586  )
       111        O      tau( 111) = (   0.2124247  -0.2494950   0.7625375  )
       112        O      tau( 112) = (   0.0982776   0.7071377   0.0684205  )
       113        O      tau( 113) = (   0.2899498  -0.0809273   0.7598075  )
       114        O      tau( 114) = (  -0.0003299   0.5684477   0.0703499  )
       115        O      tau( 115) = (   0.0065065  -0.1152725   0.5217568  )
       116        O      tau( 116) = (   0.1896854   0.4107641   0.2975595  )
       117        O      tau( 117) = (   0.6189663   0.3618337   0.0705830  )
       118        O      tau( 118) = (  -0.3138388   0.1098489   0.7596660  )
       119        O      tau( 119) = (   0.5300617   0.2148028   0.0716710  )
       120        O      tau( 120) = (  -0.1864788   0.2443029   0.7533901  )
       121        O      tau( 121) = (   0.3317400   0.4948149   0.1947864  )
       122        O      tau( 122) = (   0.0054096   0.0074242   0.6459888  )
       123        O      tau( 123) = (   0.4622097   0.3582948   0.0041098  )
       124        O      tau( 124) = (   0.1562556   0.5613835   0.0047893  )

     --------------------------------------------
     DFT-D3 Dispersion Correction (3-body terms):
     --------------------------------------------
       Reference C6 values for interpolation: 

         atom   Coordination number   C6
         H          0.912             6.05
         H          0.000            15.18
         C          0.000            98.23
         C          0.987            86.49
         C          1.998            58.72
         C          2.999            51.56
         C          3.984            36.41
         N          0.000            50.54
         N          0.994            44.25
         N          2.014            39.35
         N          2.990            31.16
         O          0.000            31.01
         O          0.993            25.63
         O          1.989            20.74
         Ti         0.000          2723.84
         Ti         1.830           604.00
         Ti         3.868           643.18

       Values used:

         atom   Coordination number  R0_AB[au]  C6      C8
         Ti         7.178            3.557    643.18  76289.64
         Ti         7.312            3.557    643.18  76289.64
         Ti         6.244            3.557    643.18  76289.64
         Ti         6.322            3.557    643.18  76289.64
         Ti         7.267            3.557    643.18  76289.64
         Ti         7.228            3.557    643.18  76289.64
         Ti         6.180            3.557    643.18  76289.64
         Ti         6.360            3.557    643.18  76289.64
         H          1.005            2.062      6.18     74.67
         H          1.000            2.062      6.18     74.71
         H          1.006            2.062      6.18     74.65
         H          1.003            2.062      6.18     74.69
         H          1.000            2.062      6.18     74.72
         H          1.003            2.062      6.18     74.69
         H          0.999            2.062      6.18     74.73
         H          1.002            2.062      6.18     74.69
         H          0.999            2.062      6.18     74.73
         H          1.005            2.062      6.18     74.66
         H          1.005            2.062      6.18     74.67
         H          1.000            2.062      6.18     74.72
         H          1.048            2.062      6.14     74.26
         H          1.050            2.062      6.14     74.25
         H          1.000            2.062      6.18     74.72
         H          1.000            2.062      6.18     74.72
         H          1.000            2.062      6.18     74.73
         H          1.000            2.062      6.18     74.72
         H          1.000            2.062      6.18     74.72
         H          1.001            2.062      6.18     74.71
         H          1.287            2.062      6.07     73.37
         H          1.287            2.062      6.07     73.37
         H          1.200            2.062      6.08     73.54
         H          1.071            2.062      6.13     74.10
         H          1.000            2.062      6.18     74.71
         H          1.004            2.062      6.18     74.67
         H          1.003            2.062      6.18     74.69
         H          1.005            2.062      6.18     74.67
         H          1.003            2.062      6.18     74.69
         H          1.005            2.062      6.18     74.67
         H          1.009            2.062      6.17     74.62
         H          1.005            2.062      6.18     74.66
         H          1.006            2.062      6.18     74.65
         H          1.003            2.062      6.18     74.69
         C          3.405            2.750     46.08   1332.71
         C          3.288            2.750     48.80   1411.24
         C          3.315            2.750     48.28   1396.21
         C          3.303            2.750     48.51   1402.97
         C          3.157            2.750     50.47   1459.77
         C          3.129            2.750     50.69   1466.13
         C          3.160            2.750     50.45   1459.05
         C          3.136            2.750     50.64   1464.58
         C          3.153            2.750     50.51   1460.92
         C          3.105            2.750     50.85   1470.67
         C          3.157            2.750     50.48   1459.90
         C          3.116            2.750     50.78   1468.78
         C          3.191            2.750     50.15   1450.41
         C          3.120            2.750     50.75   1467.90
         C          3.120            2.750     50.75   1467.89
         C          3.166            2.750     50.40   1457.66
         C          3.192            2.750     50.14   1450.09
         C          3.136            2.750     50.64   1464.74
         C          3.122            2.750     50.74   1467.53
         C          3.156            2.750     50.49   1460.17
         C          3.183            2.750     50.23   1452.84
         C          3.174            2.750     50.32   1455.34
         C          3.181            2.750     50.25   1453.35
         C          3.181            2.750     50.26   1453.50
         C          3.301            2.750     48.54   1403.89
         C          3.285            2.750     48.84   1412.64
         C          3.295            2.750     48.65   1407.07
         C          3.252            2.750     49.38   1428.18
         C          3.226            2.750     49.75   1438.74
         C          3.294            2.750     48.68   1407.92
         C          3.164            2.750     50.41   1458.00
         C          3.129            2.750     50.69   1466.17
         C          3.104            2.750     50.86   1470.94
         C          3.133            2.750     50.67   1465.42
         C          3.337            2.750     47.80   1382.35
         C          3.164            2.750     50.41   1458.05
         C          3.167            2.750     50.38   1457.18
         C          3.240            2.750     49.56   1433.36
         C          3.098            2.750     50.90   1472.04
         C          3.141            2.750     50.61   1463.62
         C          3.164            2.750     50.42   1458.12
         C          3.128            2.750     50.70   1466.29
         C          3.218            2.750     49.85   1441.75
         C          3.140            2.750     50.61   1463.83
         C          3.144            2.750     50.58   1462.81
         C          3.179            2.750     50.27   1453.99
         N          3.248            2.478     31.19    687.99
         N          3.133            2.478     31.22    688.71
         N          3.106            2.478     31.23    688.99
         N          3.123            2.478     31.22    688.81
         O          2.040            2.345     20.80    419.71
         O          2.050            2.345     20.79    419.62
         O          2.029            2.345     20.80    419.81
         O          2.063            2.345     20.79    419.52
         O          2.037            2.345     20.80    419.73
         O          2.023            2.345     20.81    419.87
         O          2.049            2.345     20.79    419.63
         O          2.044            2.345     20.80    419.67
         O          1.982            2.345     20.83    420.37
         O          1.970            2.345     20.84    420.54
         O          1.977            2.345     20.83    420.43
         O          2.005            2.345     20.82    420.07
         O          2.002            2.345     20.82    420.11
         O          1.970            2.345     20.84    420.53
         O          1.979            2.345     20.83    420.40
         O          1.984            2.345     20.83    420.34
         O          2.041            2.345     20.80    419.70
         O          2.050            2.345     20.79    419.62
         O          2.090            2.345     20.78    419.34
         O          2.057            2.345     20.79    419.57
         O          2.045            2.345     20.80    419.66
         O          2.059            2.345     20.79    419.55
         O          2.057            2.345     20.79    419.57
         O          2.047            2.345     20.79    419.65
         O          2.051            2.345     20.79    419.61
         O          2.068            2.345     20.79    419.48
         O          2.056            2.345     20.79    419.57
         O          2.047            2.345     20.79    419.64
         O          2.919            2.345     20.74    418.58
         O          2.951            2.345     20.74    418.58
         O          2.935            2.345     20.74    418.58
         O          2.931            2.345     20.74    418.58

         Molecular C6 ( Ry / a.u.^6 ) =    593049.64


   Crystallographic axes

     site n.     atom                  positions (cryst. coord.)
         1        Ti     tau(   1) = (  0.2841168  0.5732487  0.8666320  )
         2        Ti     tau(   2) = (  0.7127097  0.4207045  0.1356952  )
         3        Ti     tau(   3) = (  0.4193733  0.2887992  0.7070041  )
         4        Ti     tau(   4) = (  0.5669888  0.6965239  0.2868800  )
         5        Ti     tau(   5) = (  0.4201176  0.7120520  0.1360589  )
         6        Ti     tau(   6) = (  0.5682955  0.2817688  0.8649905  )
         7        Ti     tau(   7) = (  0.2848984  0.4148923  0.7054699  )
         8        Ti     tau(   8) = (  0.6980578  0.5684021  0.2864346  )
         9        H      tau(   9) = (  0.5379004  0.3777005  0.5417192  )
        10        H      tau(  10) = (  0.1662960  0.0048505  0.5459942  )
        11        H      tau(  11) = (  0.8376310  0.9960140  0.4567989  )
        12        H      tau(  12) = (  0.3816229  0.8385591  0.8396442  )
        13        H      tau(  13) = (  0.6183734  0.1626467  0.1587197  )
        14        H      tau(  14) = (  0.0010854  0.4577871  0.8396634  )
        15        H      tau(  15) = (  0.9959331  0.5404502  0.1588627  )
        16        H      tau(  16) = (  0.4578575  0.0011016  0.8396562  )
        17        H      tau(  17) = (  0.1627643  0.6183949  0.1588130  )
        18        H      tau(  18) = (  0.6187581  0.4583999  0.4610104  )
        19        H      tau(  19) = (  0.3782999  0.5372880  0.5423818  )
        20        H      tau(  20) = (  0.0023820  0.1649346  0.5439280  )
        21        H      tau(  21) = (  0.4327512  0.5806908  0.0114561  )
        22        H      tau(  22) = (  0.5798253  0.4314617  0.0111887  )
        23        H      tau(  23) = (  0.3873509  0.0673508  0.4533873  )
        24        H      tau(  24) = (  0.6153917  0.9323231  0.5460820  )
        25        H      tau(  25) = (  0.0676335  0.6145100  0.6820331  )
        26        H      tau(  26) = (  0.9326034  0.3862584  0.3199974  )
        27        H      tau(  27) = (  0.0675937  0.3848280  0.4531608  )
        28        H      tau(  28) = (  0.3851061  0.9319129  0.3178459  )
        29        H      tau(  29) = (  0.5395313  0.9636980  0.1998733  )
        30        H      tau(  30) = (  0.5749509  0.0326311  0.2349072  )
        31        H      tau(  31) = (  0.5894312  0.5927501  0.1702893  )
        32        H      tau(  32) = (  0.4628076  0.4577452  0.8320328  )
        33        H      tau(  33) = (  0.8066831  0.3885696  0.7661332  )
        34        H      tau(  34) = (  0.7682881  0.3041863  0.8125788  )
        35        H      tau(  35) = (  0.9077542  0.6293410  0.6102889  )
        36        H      tau(  36) = (  0.9264316  0.6747054  0.5278720  )
        37        H      tau(  37) = (  0.6179957  0.0212067  0.7253011  )
        38        H      tau(  38) = (  0.6805461  0.1444497  0.7419531  )
        39        H      tau(  39) = (  0.4157558  0.4151093  0.5818473  )
        40        H      tau(  40) = (  0.4584038  0.6185100  0.4625812  )
        41        H      tau(  41) = (  0.8363787  0.8380202  0.4249624  )
        42        H      tau(  42) = (  0.0195465  0.8498664  0.4781713  )
        43        C      tau(  43) = (  0.8279230  0.4920474  0.3454016  )
        44        C      tau(  44) = (  0.1454773  0.4943390  0.6521429  )
        45        C      tau(  45) = (  0.5153496  0.1700241  0.6574696  )
        46        C      tau(  46) = (  0.5063228  0.8529476  0.3483003  )
        47        C      tau(  47) = (  0.9207202  0.5015411  0.4246102  )
        48        C      tau(  48) = (  0.0786257  0.4984434  0.5799165  )
        49        C      tau(  49) = (  0.5038495  0.0780573  0.5765123  )
        50        C      tau(  50) = (  0.5028837  0.9214254  0.4201385  )
        51        C      tau(  51) = (  0.9588144  0.5591134  0.5215390  )
        52        C      tau(  52) = (  0.0360412  0.4331646  0.4707595  )
        53        C      tau(  53) = (  0.5556698  0.0328169  0.5974334  )
        54        C      tau(  54) = (  0.4306910  0.9586915  0.3975216  )
        55        C      tau(  55) = (  0.5695262  0.9662450  0.5289239  )
        56        C      tau(  56) = (  0.4329130  0.0322330  0.4678182  )
        57        C      tau(  57) = (  0.9657679  0.4366719  0.4002049  )
        58        C      tau(  58) = (  0.0392653  0.5681106  0.6022260  )
        59        C      tau(  59) = (  0.5469164  0.5466248  0.4572072  )
        60        C      tau(  60) = (  0.4517052  0.4510188  0.5466128  )
        61        C      tau(  61) = (  0.9063759  0.9089125  0.4544802  )
        62        C      tau(  62) = (  0.0972121  0.0986388  0.5501942  )
        63        C      tau(  63) = (  0.5443045  0.1010650 -0.0032640  )
        64        C      tau(  64) = (  0.4499569  0.8927271 -0.0046346  )
        65        C      tau(  65) = (  0.8958978  0.4513636 -0.0036493  )
        66        C      tau(  66) = (  0.1001084  0.5441189 -0.0036901  )
        67        C      tau(  67) = (  0.6044373  0.6043130  0.4157403  )
        68        C      tau(  68) = (  0.1863226  0.1889525  0.5962858  )
        69        C      tau(  69) = (  0.5872152  0.1911764 -0.0009216  )
        70        C      tau(  70) = (  0.4102066  0.8034788 -0.0046388  )
        71        C      tau(  71) = (  0.8070550  0.4124603 -0.0027021  )
        72        C      tau(  72) = (  0.1897614  0.5853370 -0.0025553  )
        73        C      tau(  73) = (  0.4765072  0.5659567  0.4790704  )
        74        C      tau(  74) = (  0.5197265  0.4294223  0.5235646  )
        75        C      tau(  75) = (  0.9069566  0.9947980  0.4718007  )
        76        C      tau(  76) = (  0.0920365 -0.0008716  0.5275429  )
        77        C      tau(  77) = (  0.5670738  0.0889148  0.0881245  )
        78        C      tau(  78) = (  0.4345147  0.9118940  0.9099893  )
        79        C      tau(  79) = (  0.9992593  0.5217366  0.0884144  )
        80        C      tau(  80) = ( -0.0023673  0.4749190  0.9097924  )
        81        C      tau(  81) = (  1.0027913  0.9098339  0.4762729  )
        82        C      tau(  82) = ( -0.0039615  0.0901974  0.5186956  )
        83        C      tau(  83) = (  0.5661883  0.4759728  0.4782496  )
        84        C      tau(  84) = (  0.4300065  0.5191208  0.5240823  )
        85        C      tau(  85) = (  0.9151608  0.4396398  0.9158436  )
        86        C      tau(  86) = (  0.0888784  0.5669274  0.0883995  )
        87        C      tau(  87) = (  0.4749156 -0.0025006  0.9097214  )
        88        C      tau(  88) = (  0.5191352  0.9964745  0.0845712  )
        89        N      tau(  89) = (  0.5545485  1.0165164  0.1759283  )
        90        N      tau(  90) = (  0.8269386  0.3649013  0.8177903  )
        91        N      tau(  91) = (  0.9290027  0.6274388  0.5569665  )
        92        N      tau(  92) = (  0.6297250  0.0681735  0.6945350  )
        93        O      tau(  93) = (  0.8366999  0.5852005  0.3572176  )
        94        O      tau(  94) = (  0.1714308  0.4231263  0.6258664  )
        95        O      tau(  95) = (  0.5498883  0.1712529  0.7507318  )
        96        O      tau(  96) = (  0.4388405  0.8127018  0.2539067  )
        97        O      tau(  97) = (  0.5768734  0.8256711  0.3691581  )
        98        O      tau(  98) = (  0.4254176  0.1739874  0.6219695  )
        99        O      tau(  99) = (  0.8196369  0.4421248  0.2547420  )
       100        O      tau( 100) = (  0.1816968  0.5585589  0.7495261  )
       101        O      tau( 101) = (  0.6233020  0.4209747  0.1943868  )
       102        O      tau( 102) = (  0.3770325  0.5602513  0.8116244  )
       103        O      tau( 103) = (  0.7583257  0.5686241  0.1968826  )
       104        O      tau( 104) = (  0.2277838  0.4303436  0.7926143  )
       105        O      tau( 105) = (  0.4232555  0.2216971  0.7847167  )
       106        O      tau( 106) = (  0.5690166  0.7614636  0.2003823  )
       107        O      tau( 107) = (  0.5641876  0.3741133  0.8083246  )
       108        O      tau( 108) = (  0.4210285  0.6235187  0.1958517  )
       109        O      tau( 109) = (  0.6302343  0.5401798  0.3637084  )
       110        O      tau( 110) = (  0.1850768  0.2739283  0.6060149  )
       111        O      tau( 111) = (  0.5698059  0.1897905  0.9185989  )
       112        O      tau( 112) = (  0.4283542  0.8050747  0.0824235  )
       113        O      tau( 113) = (  0.7145464  0.3702361  0.9153102  )
       114        O      tau( 114) = (  0.2742541  0.6564214  0.0847477  )
       115        O      tau( 115) = (  0.2736879  0.1897506  0.6285399  )
       116        O      tau( 116) = (  0.5367111  0.6229439  0.3584582  )
       117        O      tau( 117) = (  0.8092892  0.4333736  0.0850286  )
       118        O      tau( 118) = (  0.1886043  0.5762307  0.9151398  )
       119        O      tau( 119) = (  0.6609779  0.2752034  0.0863392  )
       120        O      tau( 120) = (  0.3671085  0.7176902  0.9075795  )
       121        O      tau( 121) = (  0.6511971  0.6518338  0.2346515  )
       122        O      tau( 122) = (  0.3975411  0.3971184  0.7781973  )
       123        O      tau( 123) = (  0.6110482  0.3895120  0.0049509  )
       124        O      tau( 124) = (  0.3884648  0.6093014  0.0057695  )

     number of k points=     1
                       cart. coord. in units 2pi/alat
        k(    1) = (   0.0000000   0.0000000   0.0000000), wk =   2.0000000

                       cryst. coord.
        k(    1) = (   0.0000000   0.0000000   0.0000000), wk =   2.0000000

     Dense  grid:  4204657 G-vectors     FFT dimensions: ( 225, 225, 225)

     Smooth grid:  1398533 G-vectors     FFT dimensions: ( 160, 160, 160)

     Dynamical RAM for                 wfc:      22.63 MB

     Dynamical RAM for     wfc (w. buffer):      22.63 MB

     Dynamical RAM for           str. fact:      10.35 MB

     Dynamical RAM for           local pot:       0.00 MB

     Dynamical RAM for          nlocal pot:      74.67 MB

     Dynamical RAM for                qrad:      17.94 MB

     Dynamical RAM for          rho,v,vnew:      15.48 MB

     Dynamical RAM for               rhoin:       5.16 MB

     Dynamical RAM for            rho*nmix:      33.11 MB

     Dynamical RAM for           G-vectors:       8.11 MB

     Dynamical RAM for          h,s,v(r/c):       1.40 MB

     Dynamical RAM for          <psi|beta>:       3.48 MB

     Dynamical RAM for                 psi:      45.25 MB

     Dynamical RAM for                hpsi:      45.25 MB

     Dynamical RAM for                spsi:      45.25 MB

     Dynamical RAM for      wfcinit/wfcrot:      80.52 MB

     Dynamical RAM for           addusdens:     480.14 MB

     Dynamical RAM for          addusforce:     667.62 MB

     Dynamical RAM for         addusstress:     415.99 MB

     Estimated static dynamical RAM per process >     182.20 MB

     Estimated max dynamical RAM per process >     882.93 MB

     Estimated total dynamical RAM >      26.73 GB

     Check: negative core charge=   -0.000002

     Initial potential from superposition of free atoms

     starting charge     517.9973, renormalised to     526.0000

     negative rho (up, down):  1.146E-02 0.000E+00
[ga01:3983235] 30 more processes have sent help message help-mpi-btl-openib.txt / error in device init
[ga01:3983235] Set MCA parameter "orte_base_help_aggregate" to 0 to see all help / error messages
     Starting wfcs are  442 randomized atomic wfcs
     Checking if some PAW data can be deallocated... 
       PAW data deallocated on   19 nodes for type:  3
       PAW data deallocated on   23 nodes for type:  5

     total cpu time spent up to now is       14.0 secs

     Self-consistent Calculation

     iteration #  1     ecut=    60.00 Ry     beta= 0.20
     Davidson diagonalization with overlap

---- Real-time Memory Report at c_bands before calling an iterative solver
           664 MiB given to the printing process from OS
             0 MiB allocation reported by mallinfo(arena+hblkhd)
        170104 MiB available memory on the node where the printing process lives
------------------
     ethr =  1.00E-02,  avg # of iterations =  2.0

     negative rho (up, down):  3.899E-03 0.000E+00

     total cpu time spent up to now is       40.0 secs

     total energy              =   -3209.02381785 Ry
     estimated scf accuracy    <     171.59572279 Ry

     iteration #  2     ecut=    60.00 Ry     beta= 0.20
     Davidson diagonalization with overlap

---- Real-time Memory Report at c_bands before calling an iterative solver
           769 MiB given to the printing process from OS
             0 MiB allocation reported by mallinfo(arena+hblkhd)
        168765 MiB available memory on the node where the printing process lives
------------------
     ethr =  1.00E-02,  avg # of iterations = 13.0

     negative rho (up, down):  4.798E-03 0.000E+00

     total cpu time spent up to now is       82.6 secs

     total energy              =   -3235.59021656 Ry
     estimated scf accuracy    <     286.41503764 Ry

     iteration #  3     ecut=    60.00 Ry     beta= 0.20
     Davidson diagonalization with overlap

---- Real-time Memory Report at c_bands before calling an iterative solver
           778 MiB given to the printing process from OS
             0 MiB allocation reported by mallinfo(arena+hblkhd)
        168682 MiB available memory on the node where the printing process lives
------------------
     ethr =  1.00E-02,  avg # of iterations =  9.0

     negative rho (up, down):  5.826E-03 0.000E+00

     total cpu time spent up to now is      112.8 secs

     total energy              =   -3260.01297105 Ry
     estimated scf accuracy    <      21.58174497 Ry

     iteration #  4     ecut=    60.00 Ry     beta= 0.20
     Davidson diagonalization with overlap

---- Real-time Memory Report at c_bands before calling an iterative solver
           780 MiB given to the printing process from OS
             0 MiB allocation reported by mallinfo(arena+hblkhd)
        168586 MiB available memory on the node where the printing process lives
------------------
     ethr =  4.10E-03,  avg # of iterations =  2.0

     negative rho (up, down):  1.117E-02 0.000E+00

     total cpu time spent up to now is      133.5 secs

     total energy              =   -3252.42699009 Ry
     estimated scf accuracy    <      14.47835460 Ry

     iteration #  5     ecut=    60.00 Ry     beta= 0.20
     Davidson diagonalization with overlap

---- Real-time Memory Report at c_bands before calling an iterative solver
           781 MiB given to the printing process from OS
             0 MiB allocation reported by mallinfo(arena+hblkhd)
        168548 MiB available memory on the node where the printing process lives
------------------
     ethr =  2.75E-03,  avg # of iterations = 13.0

     negative rho (up, down):  1.119E-02 0.000E+00

     total cpu time spent up to now is      169.1 secs

     total energy              =   -3262.01726159 Ry
     estimated scf accuracy    <     142.48449069 Ry

     iteration #  6     ecut=    60.00 Ry     beta= 0.20
     Davidson diagonalization with overlap

---- Real-time Memory Report at c_bands before calling an iterative solver
           785 MiB given to the printing process from OS
             0 MiB allocation reported by mallinfo(arena+hblkhd)
        168443 MiB available memory on the node where the printing process lives
------------------
     ethr =  2.75E-03,  avg # of iterations =  1.0

     negative rho (up, down):  1.173E-02 0.000E+00

     total cpu time spent up to now is      187.2 secs

     total energy              =   -3261.44004365 Ry
     estimated scf accuracy    <     131.87196691 Ry

     iteration #  7     ecut=    60.00 Ry     beta= 0.20
     Davidson diagonalization with overlap

---- Real-time Memory Report at c_bands before calling an iterative solver
           785 MiB given to the printing process from OS
             0 MiB allocation reported by mallinfo(arena+hblkhd)
        168399 MiB available memory on the node where the printing process lives
------------------
     ethr =  2.75E-03,  avg # of iterations =  1.0

     negative rho (up, down):  1.169E-02 0.000E+00

     total cpu time spent up to now is      206.4 secs

     total energy              =   -3259.57451356 Ry
     estimated scf accuracy    <     128.05422980 Ry

     iteration #  8     ecut=    60.00 Ry     beta= 0.20
     Davidson diagonalization with overlap

---- Real-time Memory Report at c_bands before calling an iterative solver
           787 MiB given to the printing process from OS
             0 MiB allocation reported by mallinfo(arena+hblkhd)
        168337 MiB available memory on the node where the printing process lives
------------------
     ethr =  2.75E-03,  avg # of iterations =  1.0

     negative rho (up, down):  1.183E-02 0.000E+00

     total cpu time spent up to now is      225.4 secs

     total energy              =   -3260.28178063 Ry
     estimated scf accuracy    <     116.20018292 Ry

     iteration #  9     ecut=    60.00 Ry     beta= 0.20
     Davidson diagonalization with overlap

---- Real-time Memory Report at c_bands before calling an iterative solver
           788 MiB given to the printing process from OS
             0 MiB allocation reported by mallinfo(arena+hblkhd)
        168277 MiB available memory on the node where the printing process lives
------------------
     ethr =  2.75E-03,  avg # of iterations =  1.0

     negative rho (up, down):  9.071E-03 0.000E+00

     total cpu time spent up to now is      245.2 secs

     total energy              =   -3246.58024608 Ry
     estimated scf accuracy    <     116.58568774 Ry

     iteration # 10     ecut=    60.00 Ry     beta= 0.20
     Davidson diagonalization with overlap

---- Real-time Memory Report at c_bands before calling an iterative solver
           790 MiB given to the printing process from OS
             0 MiB allocation reported by mallinfo(arena+hblkhd)
        168211 MiB available memory on the node where the printing process lives
------------------
     ethr =  2.75E-03,  avg # of iterations =  9.0

     negative rho (up, down):  8.848E-03 0.000E+00

     total cpu time spent up to now is      281.0 secs

     total energy              =   -3258.99517437 Ry
     estimated scf accuracy    <      45.31857434 Ry

     iteration # 11     ecut=    60.00 Ry     beta= 0.20
     Davidson diagonalization with overlap

---- Real-time Memory Report at c_bands before calling an iterative solver
           791 MiB given to the printing process from OS
             0 MiB allocation reported by mallinfo(arena+hblkhd)
        168164 MiB available memory on the node where the printing process lives
------------------
     ethr =  2.75E-03,  avg # of iterations =  1.0

     negative rho (up, down):  9.329E-03 0.000E+00

     total cpu time spent up to now is      301.1 secs

     total energy              =   -3255.45692872 Ry
     estimated scf accuracy    <      43.12184403 Ry

     iteration # 12     ecut=    60.00 Ry     beta= 0.20
     Davidson diagonalization with overlap

---- Real-time Memory Report at c_bands before calling an iterative solver
           791 MiB given to the printing process from OS
             0 MiB allocation reported by mallinfo(arena+hblkhd)
        168173 MiB available memory on the node where the printing process lives
------------------
     ethr =  2.75E-03,  avg # of iterations = 11.0

     negative rho (up, down):  7.578E-03 0.000E+00

     total cpu time spent up to now is      325.8 secs

     total energy              =   -3258.88955650 Ry
     estimated scf accuracy    <       4.30271001 Ry

     iteration # 13     ecut=    60.00 Ry     beta= 0.20
     Davidson diagonalization with overlap

---- Real-time Memory Report at c_bands before calling an iterative solver
           791 MiB given to the printing process from OS
             0 MiB allocation reported by mallinfo(arena+hblkhd)
        168169 MiB available memory on the node where the printing process lives
------------------
     ethr =  8.18E-04,  avg # of iterations =  4.0

     negative rho (up, down):  7.028E-03 0.000E+00

     total cpu time spent up to now is      348.6 secs

     total energy              =   -3259.65933506 Ry
     estimated scf accuracy    <       7.39374786 Ry

     iteration # 14     ecut=    60.00 Ry     beta= 0.20
     Davidson diagonalization with overlap

---- Real-time Memory Report at c_bands before calling an iterative solver
           791 MiB given to the printing process from OS
             0 MiB allocation reported by mallinfo(arena+hblkhd)
        168168 MiB available memory on the node where the printing process lives
------------------
     ethr =  8.18E-04,  avg # of iterations =  2.0

     negative rho (up, down):  7.160E-03 0.000E+00

     total cpu time spent up to now is      369.2 secs

     total energy              =   -3259.48988896 Ry
     estimated scf accuracy    <       8.54629189 Ry

     iteration # 15     ecut=    60.00 Ry     beta= 0.20
     Davidson diagonalization with overlap

---- Real-time Memory Report at c_bands before calling an iterative solver
           791 MiB given to the printing process from OS
             0 MiB allocation reported by mallinfo(arena+hblkhd)
        168169 MiB available memory on the node where the printing process lives
------------------
     ethr =  8.18E-04,  avg # of iterations =  1.0

     negative rho (up, down):  7.534E-03 0.000E+00

     total cpu time spent up to now is      388.4 secs

     total energy              =   -3258.77196331 Ry
     estimated scf accuracy    <       8.21171559 Ry

     iteration # 16     ecut=    60.00 Ry     beta= 0.20
     Davidson diagonalization with overlap

---- Real-time Memory Report at c_bands before calling an iterative solver
           791 MiB given to the printing process from OS
             0 MiB allocation reported by mallinfo(arena+hblkhd)
        168167 MiB available memory on the node where the printing process lives
------------------
     ethr =  8.18E-04,  avg # of iterations =  1.0

     negative rho (up, down):  7.547E-03 0.000E+00

     total cpu time spent up to now is      406.8 secs

     total energy              =   -3258.91674057 Ry
     estimated scf accuracy    <       6.61314557 Ry

     iteration # 17     ecut=    60.00 Ry     beta= 0.20
     Davidson diagonalization with overlap

---- Real-time Memory Report at c_bands before calling an iterative solver
           791 MiB given to the printing process from OS
             0 MiB allocation reported by mallinfo(arena+hblkhd)
        168168 MiB available memory on the node where the printing process lives
------------------
     ethr =  8.18E-04,  avg # of iterations =  1.0

     negative rho (up, down):  7.639E-03 0.000E+00

     total cpu time spent up to now is      425.2 secs

     total energy              =   -3258.62237591 Ry
     estimated scf accuracy    <       6.77654238 Ry

     iteration # 18     ecut=    60.00 Ry     beta= 0.20
     Davidson diagonalization with overlap

---- Real-time Memory Report at c_bands before calling an iterative solver
           791 MiB given to the printing process from OS
             0 MiB allocation reported by mallinfo(arena+hblkhd)
        168168 MiB available memory on the node where the printing process lives
------------------
     ethr =  8.18E-04,  avg # of iterations =  1.0

     negative rho (up, down):  8.568E-03 0.000E+00

     total cpu time spent up to now is      444.4 secs

     total energy              =   -3255.19548689 Ry
     estimated scf accuracy    <       6.05898119 Ry

     iteration # 19     ecut=    60.00 Ry     beta= 0.20
     Davidson diagonalization with overlap

---- Real-time Memory Report at c_bands before calling an iterative solver
           791 MiB given to the printing process from OS
             0 MiB allocation reported by mallinfo(arena+hblkhd)
        168167 MiB available memory on the node where the printing process lives
------------------
     ethr =  8.18E-04,  avg # of iterations = 13.0

     negative rho (up, down):  8.177E-03 0.000E+00

     total cpu time spent up to now is      482.7 secs

     total energy              =   -3250.65544272 Ry
     estimated scf accuracy    <      85.44961100 Ry

     iteration # 20     ecut=    60.00 Ry     beta= 0.20
     Davidson diagonalization with overlap

---- Real-time Memory Report at c_bands before calling an iterative solver
           791 MiB given to the printing process from OS
             0 MiB allocation reported by mallinfo(arena+hblkhd)
        168166 MiB available memory on the node where the printing process lives
------------------
     ethr =  8.18E-04,  avg # of iterations = 14.0

     negative rho (up, down):  8.392E-03 0.000E+00

     total cpu time spent up to now is      516.6 secs

     total energy              =   -3257.60755092 Ry
     estimated scf accuracy    <       1.56514802 Ry

     iteration # 21     ecut=    60.00 Ry     beta= 0.20
     Davidson diagonalization with overlap

---- Real-time Memory Report at c_bands before calling an iterative solver
           800 MiB given to the printing process from OS
             0 MiB allocation reported by mallinfo(arena+hblkhd)
        168159 MiB available memory on the node where the printing process lives
------------------
     c_bands:  1 eigenvalues not converged
     ethr =  2.98E-04,  avg # of iterations = 20.0

     negative rho (up, down):  8.061E-03 0.000E+00

     total cpu time spent up to now is      540.4 secs

     total energy              =   -3257.38965352 Ry
     estimated scf accuracy    <       5.37302263 Ry

     iteration # 22     ecut=    60.00 Ry     beta= 0.20
     Davidson diagonalization with overlap

---- Real-time Memory Report at c_bands before calling an iterative solver
           802 MiB given to the printing process from OS
             0 MiB allocation reported by mallinfo(arena+hblkhd)
        168159 MiB available memory on the node where the printing process lives
------------------
     ethr =  2.98E-04,  avg # of iterations = 16.0

     negative rho (up, down):  8.287E-03 0.000E+00

     total cpu time spent up to now is      563.4 secs

     total energy              =   -3257.76292813 Ry
     estimated scf accuracy    <       2.05283926 Ry

     iteration # 23     ecut=    60.00 Ry     beta= 0.20
     Davidson diagonalization with overlap

---- Real-time Memory Report at c_bands before calling an iterative solver
           802 MiB given to the printing process from OS
             0 MiB allocation reported by mallinfo(arena+hblkhd)
        168153 MiB available memory on the node where the printing process lives
------------------
     ethr =  2.98E-04,  avg # of iterations =  2.0

     negative rho (up, down):  8.541E-03 0.000E+00

     total cpu time spent up to now is      584.0 secs

     total energy              =   -3257.52426037 Ry
     estimated scf accuracy    <       2.22943909 Ry

     iteration # 24     ecut=    60.00 Ry     beta= 0.20
     Davidson diagonalization with overlap

---- Real-time Memory Report at c_bands before calling an iterative solver
           802 MiB given to the printing process from OS
             0 MiB allocation reported by mallinfo(arena+hblkhd)
        168151 MiB available memory on the node where the printing process lives
------------------
     ethr =  2.98E-04,  avg # of iterations =  2.0

     negative rho (up, down):  8.835E-03 0.000E+00

     total cpu time spent up to now is      603.7 secs

     total energy              =   -3257.30672556 Ry
     estimated scf accuracy    <       1.67385380 Ry

     iteration # 25     ecut=    60.00 Ry     beta= 0.20
     Davidson diagonalization with overlap

---- Real-time Memory Report at c_bands before calling an iterative solver
           802 MiB given to the printing process from OS
             0 MiB allocation reported by mallinfo(arena+hblkhd)
        168152 MiB available memory on the node where the printing process lives
------------------
     c_bands:  1 eigenvalues not converged
     ethr =  2.98E-04,  avg # of iterations = 20.0

     negative rho (up, down):  8.851E-03 0.000E+00

     total cpu time spent up to now is      627.6 secs

     total energy              =   -3257.41105371 Ry
     estimated scf accuracy    <       0.66634735 Ry

     iteration # 26     ecut=    60.00 Ry     beta= 0.20
     Davidson diagonalization with overlap

---- Real-time Memory Report at c_bands before calling an iterative solver
           802 MiB given to the printing process from OS
             0 MiB allocation reported by mallinfo(arena+hblkhd)
        168152 MiB available memory on the node where the printing process lives
------------------
     ethr =  1.27E-04,  avg # of iterations = 20.0

     negative rho (up, down):  8.914E-03 0.000E+00

     total cpu time spent up to now is      650.6 secs

     total energy              =   -3257.42645269 Ry
     estimated scf accuracy    <       1.15320492 Ry

     iteration # 27     ecut=    60.00 Ry     beta= 0.20
     Davidson diagonalization with overlap

---- Real-time Memory Report at c_bands before calling an iterative solver
           802 MiB given to the printing process from OS
             0 MiB allocation reported by mallinfo(arena+hblkhd)
        168164 MiB available memory on the node where the printing process lives
------------------
     ethr =  1.27E-04,  avg # of iterations =  1.0

     negative rho (up, down):  8.956E-03 0.000E+00

     total cpu time spent up to now is      670.7 secs

     total energy              =   -3257.43050059 Ry
     estimated scf accuracy    <       1.10415000 Ry

     iteration # 28     ecut=    60.00 Ry     beta= 0.20
     Davidson diagonalization with overlap

---- Real-time Memory Report at c_bands before calling an iterative solver
           807 MiB given to the printing process from OS
             0 MiB allocation reported by mallinfo(arena+hblkhd)
        168161 MiB available memory on the node where the printing process lives
------------------
     ethr =  1.27E-04,  avg # of iterations =  1.0

     negative rho (up, down):  9.933E-03 0.000E+00

     total cpu time spent up to now is      689.9 secs

     total energy              =   -3257.16944416 Ry
     estimated scf accuracy    <       1.09560842 Ry

     iteration # 29     ecut=    60.00 Ry     beta= 0.20
     Davidson diagonalization with overlap

---- Real-time Memory Report at c_bands before calling an iterative solver
           807 MiB given to the printing process from OS
             0 MiB allocation reported by mallinfo(arena+hblkhd)
        168157 MiB available memory on the node where the printing process lives
------------------
     c_bands:  1 eigenvalues not converged
     ethr =  1.27E-04,  avg # of iterations = 20.0

     negative rho (up, down):  9.294E-03 0.000E+00

     total cpu time spent up to now is      731.8 secs

     total energy              =   -3256.53973174 Ry
     estimated scf accuracy    <      26.62689328 Ry

     iteration # 30     ecut=    60.00 Ry     beta= 0.20
     Davidson diagonalization with overlap

---- Real-time Memory Report at c_bands before calling an iterative solver
           809 MiB given to the printing process from OS
             0 MiB allocation reported by mallinfo(arena+hblkhd)
        168152 MiB available memory on the node where the printing process lives
------------------
     ethr =  1.27E-04,  avg # of iterations = 13.0

     negative rho (up, down):  9.302E-03 0.000E+00

     total cpu time spent up to now is      763.6 secs

     total energy              =   -3257.50812932 Ry
     estimated scf accuracy    <       1.80549311 Ry

     iteration # 31     ecut=    60.00 Ry     beta= 0.20
     Davidson diagonalization with overlap

---- Real-time Memory Report at c_bands before calling an iterative solver
           809 MiB given to the printing process from OS
             0 MiB allocation reported by mallinfo(arena+hblkhd)
        168150 MiB available memory on the node where the printing process lives
------------------
     ethr =  1.27E-04,  avg # of iterations =  1.0

     negative rho (up, down):  9.530E-03 0.000E+00

     total cpu time spent up to now is      782.7 secs

     total energy              =   -3257.50277526 Ry
     estimated scf accuracy    <       1.82085108 Ry

     iteration # 32     ecut=    60.00 Ry     beta= 0.20
     Davidson diagonalization with overlap

---- Real-time Memory Report at c_bands before calling an iterative solver
           811 MiB given to the printing process from OS
             0 MiB allocation reported by mallinfo(arena+hblkhd)
        168149 MiB available memory on the node where the printing process lives
------------------
     ethr =  1.27E-04,  avg # of iterations =  3.0

     negative rho (up, down):  9.806E-03 0.000E+00

     total cpu time spent up to now is      805.3 secs

     total energy              =   -3257.52056285 Ry
     estimated scf accuracy    <       1.94660416 Ry

     iteration # 33     ecut=    60.00 Ry     beta= 0.20
     Davidson diagonalization with overlap

---- Real-time Memory Report at c_bands before calling an iterative solver
           816 MiB given to the printing process from OS
             0 MiB allocation reported by mallinfo(arena+hblkhd)
        168144 MiB available memory on the node where the printing process lives
------------------
     ethr =  1.27E-04,  avg # of iterations = 11.0

     negative rho (up, down):  1.006E-02 0.000E+00

     total cpu time spent up to now is      825.5 secs

     total energy              =   -3257.51564062 Ry
     estimated scf accuracy    <       2.55269439 Ry

     iteration # 34     ecut=    60.00 Ry     beta= 0.20
     Davidson diagonalization with overlap

---- Real-time Memory Report at c_bands before calling an iterative solver
           816 MiB given to the printing process from OS
             0 MiB allocation reported by mallinfo(arena+hblkhd)
        168143 MiB available memory on the node where the printing process lives
------------------
     c_bands:  1 eigenvalues not converged
     ethr =  1.27E-04,  avg # of iterations = 20.0

     negative rho (up, down):  1.002E-02 0.000E+00

     total cpu time spent up to now is      848.1 secs

     total energy              =   -3257.51826907 Ry
     estimated scf accuracy    <       3.49311256 Ry

     iteration # 35     ecut=    60.00 Ry     beta= 0.20
     Davidson diagonalization with overlap

---- Real-time Memory Report at c_bands before calling an iterative solver
           816 MiB given to the printing process from OS
             0 MiB allocation reported by mallinfo(arena+hblkhd)
        168142 MiB available memory on the node where the printing process lives
------------------
     ethr =  1.27E-04,  avg # of iterations = 17.0

     negative rho (up, down):  9.961E-03 0.000E+00

     total cpu time spent up to now is      872.2 secs

     total energy              =   -3257.41952823 Ry
     estimated scf accuracy    <       3.09319701 Ry

     iteration # 36     ecut=    60.00 Ry     beta= 0.20
     Davidson diagonalization with overlap

---- Real-time Memory Report at c_bands before calling an iterative solver
           816 MiB given to the printing process from OS
             0 MiB allocation reported by mallinfo(arena+hblkhd)
        168140 MiB available memory on the node where the printing process lives
------------------
     c_bands:  1 eigenvalues not converged
     ethr =  1.27E-04,  avg # of iterations = 20.0

     negative rho (up, down):  9.601E-03 0.000E+00

     total cpu time spent up to now is      894.0 secs

     total energy              =   -3257.09368222 Ry
     estimated scf accuracy    <       2.81135433 Ry

     iteration # 37     ecut=    60.00 Ry     beta= 0.20
     Davidson diagonalization with overlap

---- Real-time Memory Report at c_bands before calling an iterative solver
           816 MiB given to the printing process from OS
             0 MiB allocation reported by mallinfo(arena+hblkhd)
        168132 MiB available memory on the node where the printing process lives
------------------
     ethr =  1.27E-04,  avg # of iterations = 18.0

     negative rho (up, down):  9.604E-03 0.000E+00

     total cpu time spent up to now is      924.5 secs

     total energy              =   -3257.29325134 Ry
     estimated scf accuracy    <       0.35645161 Ry

     iteration # 38     ecut=    60.00 Ry     beta= 0.20
     Davidson diagonalization with overlap

---- Real-time Memory Report at c_bands before calling an iterative solver
           816 MiB given to the printing process from OS
             0 MiB allocation reported by mallinfo(arena+hblkhd)
        168133 MiB available memory on the node where the printing process lives
------------------
     c_bands:  1 eigenvalues not converged
     ethr =  6.78E-05,  avg # of iterations = 20.0

     negative rho (up, down):  9.814E-03 0.000E+00

     total cpu time spent up to now is      947.3 secs

     total energy              =   -3257.31997105 Ry
     estimated scf accuracy    <       0.14453392 Ry

     iteration # 39     ecut=    60.00 Ry     beta= 0.20
     Davidson diagonalization with overlap

---- Real-time Memory Report at c_bands before calling an iterative solver
           816 MiB given to the printing process from OS
             0 MiB allocation reported by mallinfo(arena+hblkhd)
        168138 MiB available memory on the node where the printing process lives
------------------
     c_bands:  1 eigenvalues not converged
     ethr =  2.75E-05,  avg # of iterations = 20.0

     negative rho (up, down):  9.853E-03 0.000E+00

     total cpu time spent up to now is      972.2 secs

     total energy              =   -3257.34049372 Ry
     estimated scf accuracy    <       0.22214309 Ry

     iteration # 40     ecut=    60.00 Ry     beta= 0.20
     Davidson diagonalization with overlap

---- Real-time Memory Report at c_bands before calling an iterative solver
           816 MiB given to the printing process from OS
             0 MiB allocation reported by mallinfo(arena+hblkhd)
        168139 MiB available memory on the node where the printing process lives
------------------
     c_bands:  1 eigenvalues not converged
     ethr =  2.75E-05,  avg # of iterations = 20.0

     negative rho (up, down):  9.828E-03 0.000E+00

     total cpu time spent up to now is      996.4 secs

     total energy              =   -3257.34590257 Ry
     estimated scf accuracy    <       0.65460205 Ry

     iteration # 41     ecut=    60.00 Ry     beta= 0.20
     Davidson diagonalization with overlap

---- Real-time Memory Report at c_bands before calling an iterative solver
           816 MiB given to the printing process from OS
             0 MiB allocation reported by mallinfo(arena+hblkhd)
        168137 MiB available memory on the node where the printing process lives
------------------
     ethr =  2.75E-05,  avg # of iterations =  2.0

     negative rho (up, down):  9.819E-03 0.000E+00

     total cpu time spent up to now is     1018.7 secs

     total energy              =   -3257.31412117 Ry
     estimated scf accuracy    <       0.62722949 Ry

     iteration # 42     ecut=    60.00 Ry     beta= 0.20
     Davidson diagonalization with overlap

---- Real-time Memory Report at c_bands before calling an iterative solver
           816 MiB given to the printing process from OS
             0 MiB allocation reported by mallinfo(arena+hblkhd)
        168138 MiB available memory on the node where the printing process lives
------------------
     c_bands:  1 eigenvalues not converged
     ethr =  2.75E-05,  avg # of iterations = 20.0

     negative rho (up, down):  9.836E-03 0.000E+00

     total cpu time spent up to now is     1044.1 secs

     total energy              =   -3257.30583858 Ry
     estimated scf accuracy    <       0.17991084 Ry

     iteration # 43     ecut=    60.00 Ry     beta= 0.20
     Davidson diagonalization with overlap

---- Real-time Memory Report at c_bands before calling an iterative solver
           816 MiB given to the printing process from OS
             0 MiB allocation reported by mallinfo(arena+hblkhd)
        168129 MiB available memory on the node where the printing process lives
------------------
     c_bands:  1 eigenvalues not converged
     ethr =  2.75E-05,  avg # of iterations = 20.0

     negative rho (up, down):  9.912E-03 0.000E+00

     total cpu time spent up to now is     1069.1 secs

     total energy              =   -3257.29748537 Ry
     estimated scf accuracy    <       0.42428365 Ry

     iteration # 44     ecut=    60.00 Ry     beta= 0.20
     Davidson diagonalization with overlap

---- Real-time Memory Report at c_bands before calling an iterative solver
           816 MiB given to the printing process from OS
             0 MiB allocation reported by mallinfo(arena+hblkhd)
        168131 MiB available memory on the node where the printing process lives
------------------
     c_bands:  1 eigenvalues not converged
     ethr =  2.75E-05,  avg # of iterations = 20.0

     negative rho (up, down):  9.905E-03 0.000E+00

     total cpu time spent up to now is     1094.4 secs

     total energy              =   -3257.30062976 Ry
     estimated scf accuracy    <       0.47174487 Ry

     iteration # 45     ecut=    60.00 Ry     beta= 0.20
     Davidson diagonalization with overlap

---- Real-time Memory Report at c_bands before calling an iterative solver
           816 MiB given to the printing process from OS
             0 MiB allocation reported by mallinfo(arena+hblkhd)
        168129 MiB available memory on the node where the printing process lives
------------------
     c_bands:  1 eigenvalues not converged
     ethr =  2.75E-05,  avg # of iterations = 20.0

     negative rho (up, down):  9.973E-03 0.000E+00

     total cpu time spent up to now is     1118.2 secs

     total energy              =   -3257.32199274 Ry
     estimated scf accuracy    <       0.34996550 Ry

     iteration # 46     ecut=    60.00 Ry     beta= 0.20
     Davidson diagonalization with overlap

---- Real-time Memory Report at c_bands before calling an iterative solver
           816 MiB given to the printing process from OS
             0 MiB allocation reported by mallinfo(arena+hblkhd)
        168124 MiB available memory on the node where the printing process lives
------------------
     ethr =  2.75E-05,  avg # of iterations = 12.0

     negative rho (up, down):  1.005E-02 0.000E+00

     total cpu time spent up to now is     1140.7 secs

     total energy              =   -3257.31905174 Ry
     estimated scf accuracy    <       0.36036739 Ry

     iteration # 47     ecut=    60.00 Ry     beta= 0.20
     Davidson diagonalization with overlap

---- Real-time Memory Report at c_bands before calling an iterative solver
           817 MiB given to the printing process from OS
             0 MiB allocation reported by mallinfo(arena+hblkhd)
        168129 MiB available memory on the node where the printing process lives
------------------
     ethr =  2.75E-05,  avg # of iterations =  2.0

     negative rho (up, down):  1.008E-02 0.000E+00

     total cpu time spent up to now is     1162.2 secs

     total energy              =   -3257.31239007 Ry
     estimated scf accuracy    <       0.34525309 Ry

     iteration # 48     ecut=    60.00 Ry     beta= 0.20
     Davidson diagonalization with overlap

---- Real-time Memory Report at c_bands before calling an iterative solver
           817 MiB given to the printing process from OS
             0 MiB allocation reported by mallinfo(arena+hblkhd)
        168128 MiB available memory on the node where the printing process lives
------------------
     c_bands:  1 eigenvalues not converged
     ethr =  2.75E-05,  avg # of iterations = 20.0

     negative rho (up, down):  1.010E-02 0.000E+00

     total cpu time spent up to now is     1185.5 secs

     total energy              =   -3257.33405840 Ry
     estimated scf accuracy    <       0.56773612 Ry

     iteration # 49     ecut=    60.00 Ry     beta= 0.20
     Davidson diagonalization with overlap

---- Real-time Memory Report at c_bands before calling an iterative solver
           817 MiB given to the printing process from OS
             0 MiB allocation reported by mallinfo(arena+hblkhd)
        168126 MiB available memory on the node where the printing process lives
------------------
     ethr =  2.75E-05,  avg # of iterations =  2.0

     negative rho (up, down):  1.013E-02 0.000E+00

     total cpu time spent up to now is     1206.0 secs

     total energy              =   -3257.31881390 Ry
     estimated scf accuracy    <       0.55719237 Ry

     iteration # 50     ecut=    60.00 Ry     beta= 0.20
     Davidson diagonalization with overlap

---- Real-time Memory Report at c_bands before calling an iterative solver
           817 MiB given to the printing process from OS
             0 MiB allocation reported by mallinfo(arena+hblkhd)
        168125 MiB available memory on the node where the printing process lives
------------------
     ethr =  2.75E-05,  avg # of iterations =  2.0

     negative rho (up, down):  1.005E-02 0.000E+00

     total cpu time spent up to now is     1226.7 secs

     total energy              =   -3257.29390532 Ry
     estimated scf accuracy    <       0.51848024 Ry

     iteration # 51     ecut=    60.00 Ry     beta= 0.20
     Davidson diagonalization with overlap

---- Real-time Memory Report at c_bands before calling an iterative solver
           817 MiB given to the printing process from OS
             0 MiB allocation reported by mallinfo(arena+hblkhd)
        168118 MiB available memory on the node where the printing process lives
------------------
     ethr =  2.75E-05,  avg # of iterations =  6.0

     negative rho (up, down):  1.017E-02 0.000E+00

     total cpu time spent up to now is     1249.4 secs

     total energy              =   -3257.29588129 Ry
     estimated scf accuracy    <       0.43563829 Ry

     iteration # 52     ecut=    60.00 Ry     beta= 0.20
     Davidson diagonalization with overlap

---- Real-time Memory Report at c_bands before calling an iterative solver
           817 MiB given to the printing process from OS
             0 MiB allocation reported by mallinfo(arena+hblkhd)
        168129 MiB available memory on the node where the printing process lives
------------------
     c_bands:  1 eigenvalues not converged
     ethr =  2.75E-05,  avg # of iterations = 20.0

     negative rho (up, down):  1.017E-02 0.000E+00

     total cpu time spent up to now is     1272.1 secs

     total energy              =   -3257.32793244 Ry
     estimated scf accuracy    <       0.28791050 Ry

     iteration # 53     ecut=    60.00 Ry     beta= 0.20
     Davidson diagonalization with overlap

---- Real-time Memory Report at c_bands before calling an iterative solver
           817 MiB given to the printing process from OS
             0 MiB allocation reported by mallinfo(arena+hblkhd)
        168115 MiB available memory on the node where the printing process lives
------------------
     ethr =  2.75E-05,  avg # of iterations = 19.0

     negative rho (up, down):  1.014E-02 0.000E+00

     total cpu time spent up to now is     1296.2 secs

     total energy              =   -3257.33620447 Ry
     estimated scf accuracy    <       0.29415576 Ry

     iteration # 54     ecut=    60.00 Ry     beta= 0.20
     Davidson diagonalization with overlap

---- Real-time Memory Report at c_bands before calling an iterative solver
           817 MiB given to the printing process from OS
             0 MiB allocation reported by mallinfo(arena+hblkhd)
        168117 MiB available memory on the node where the printing process lives
------------------
     ethr =  2.75E-05,  avg # of iterations =  1.0

     negative rho (up, down):  1.019E-02 0.000E+00

     total cpu time spent up to now is     1315.5 secs

     total energy              =   -3257.34137464 Ry
     estimated scf accuracy    <       0.27514686 Ry

     iteration # 55     ecut=    60.00 Ry     beta= 0.20
     Davidson diagonalization with overlap

---- Real-time Memory Report at c_bands before calling an iterative solver
           817 MiB given to the printing process from OS
             0 MiB allocation reported by mallinfo(arena+hblkhd)
        168110 MiB available memory on the node where the printing process lives
------------------
     ethr =  2.75E-05,  avg # of iterations =  1.0

     negative rho (up, down):  1.020E-02 0.000E+00

     total cpu time spent up to now is     1335.3 secs

     total energy              =   -3257.34816509 Ry
     estimated scf accuracy    <       0.27889402 Ry

     iteration # 56     ecut=    60.00 Ry     beta= 0.20
     Davidson diagonalization with overlap

---- Real-time Memory Report at c_bands before calling an iterative solver
           817 MiB given to the printing process from OS
             0 MiB allocation reported by mallinfo(arena+hblkhd)
        168109 MiB available memory on the node where the printing process lives
------------------
     ethr =  2.75E-05,  avg # of iterations =  1.0

     negative rho (up, down):  9.939E-03 0.000E+00

     total cpu time spent up to now is     1355.4 secs

     total energy              =   -3257.24248435 Ry
     estimated scf accuracy    <       0.29260678 Ry

     iteration # 57     ecut=    60.00 Ry     beta= 0.20
     Davidson diagonalization with overlap

---- Real-time Memory Report at c_bands before calling an iterative solver
           817 MiB given to the printing process from OS
             0 MiB allocation reported by mallinfo(arena+hblkhd)
        168107 MiB available memory on the node where the printing process lives
------------------
     ethr =  2.75E-05,  avg # of iterations = 16.0

     negative rho (up, down):  1.011E-02 0.000E+00

     total cpu time spent up to now is     1385.3 secs

     total energy              =   -3257.28210450 Ry
     estimated scf accuracy    <       0.82370928 Ry

     iteration # 58     ecut=    60.00 Ry     beta= 0.20
     Davidson diagonalization with overlap

---- Real-time Memory Report at c_bands before calling an iterative solver
           817 MiB given to the printing process from OS
             0 MiB allocation reported by mallinfo(arena+hblkhd)
        168110 MiB available memory on the node where the printing process lives
------------------
     c_bands:  1 eigenvalues not converged
     ethr =  2.75E-05,  avg # of iterations = 20.0

     negative rho (up, down):  1.011E-02 0.000E+00

     total cpu time spent up to now is     1412.5 secs

     total energy              =   -3257.33229963 Ry
     estimated scf accuracy    <       0.27158603 Ry

     iteration # 59     ecut=    60.00 Ry     beta= 0.20
     Davidson diagonalization with overlap

---- Real-time Memory Report at c_bands before calling an iterative solver
           817 MiB given to the printing process from OS
             0 MiB allocation reported by mallinfo(arena+hblkhd)
        168106 MiB available memory on the node where the printing process lives
------------------
     ethr =  2.75E-05,  avg # of iterations = 17.0

     negative rho (up, down):  1.011E-02 0.000E+00

     total cpu time spent up to now is     1435.6 secs

     total energy              =   -3257.33370993 Ry
     estimated scf accuracy    <       0.26520480 Ry

     iteration # 60     ecut=    60.00 Ry     beta= 0.20
     Davidson diagonalization with overlap

---- Real-time Memory Report at c_bands before calling an iterative solver
           817 MiB given to the printing process from OS
             0 MiB allocation reported by mallinfo(arena+hblkhd)
        168108 MiB available memory on the node where the printing process lives
------------------
     ethr =  2.75E-05,  avg # of iterations =  1.0

     negative rho (up, down):  1.020E-02 0.000E+00

     total cpu time spent up to now is     1453.9 secs

     total energy              =   -3257.28631161 Ry
     estimated scf accuracy    <       0.26305340 Ry

     iteration # 61     ecut=    60.00 Ry     beta= 0.20
     Davidson diagonalization with overlap

---- Real-time Memory Report at c_bands before calling an iterative solver
           817 MiB given to the printing process from OS
             0 MiB allocation reported by mallinfo(arena+hblkhd)
        168108 MiB available memory on the node where the printing process lives
------------------
     c_bands:  1 eigenvalues not converged
     ethr =  2.75E-05,  avg # of iterations = 20.0

     negative rho (up, down):  1.011E-02 0.000E+00

     total cpu time spent up to now is     1477.7 secs

     total energy              =   -3257.33165532 Ry
     estimated scf accuracy    <       0.80629888 Ry

     iteration # 62     ecut=    60.00 Ry     beta= 0.20
     Davidson diagonalization with overlap

---- Real-time Memory Report at c_bands before calling an iterative solver
           817 MiB given to the printing process from OS
             0 MiB allocation reported by mallinfo(arena+hblkhd)
        168105 MiB available memory on the node where the printing process lives
------------------
     ethr =  2.75E-05,  avg # of iterations =  7.0

     negative rho (up, down):  1.008E-02 0.000E+00

     total cpu time spent up to now is     1499.7 secs

     total energy              =   -3257.31480191 Ry
     estimated scf accuracy    <       0.61024278 Ry

     iteration # 63     ecut=    60.00 Ry     beta= 0.20
     Davidson diagonalization with overlap

---- Real-time Memory Report at c_bands before calling an iterative solver
           817 MiB given to the printing process from OS
[...]

     total energy              =   -3257.33103216 Ry
     estimated scf accuracy    <       0.46209437 Ry

     iteration #178     ecut=    60.00 Ry     beta= 0.20
     Davidson diagonalization with overlap

---- Real-time Memory Report at c_bands before calling an iterative solver
           820 MiB given to the printing process from OS
             0 MiB allocation reported by mallinfo(arena+hblkhd)
        168057 MiB available memory on the node where the printing process lives
------------------
     ethr =  9.64E-06,  avg # of iterations =  1.0

     negative rho (up, down):  1.028E-02 0.000E+00

     total cpu time spent up to now is     4196.9 secs

     total energy              =   -3257.32995892 Ry
     estimated scf accuracy    <       0.44808412 Ry

     iteration #179     ecut=    60.00 Ry     beta= 0.20
     Davidson diagonalization with overlap

---- Real-time Memory Report at c_bands before calling an iterative solver
           820 MiB given to the printing process from OS
             0 MiB allocation reported by mallinfo(arena+hblkhd)
        168053 MiB available memory on the node where the printing process lives
------------------
     ethr =  9.64E-06,  avg # of iterations =  2.0

     negative rho (up, down):  1.027E-02 0.000E+00

     total cpu time spent up to now is     4216.7 secs

     total energy              =   -3257.27306364 Ry
     estimated scf accuracy    <       0.44517114 Ry

     iteration #180     ecut=    60.00 Ry     beta= 0.20
     Davidson diagonalization with overlap

---- Real-time Memory Report at c_bands before calling an iterative solver
           820 MiB given to the printing process from OS
             0 MiB allocation reported by mallinfo(arena+hblkhd)
        168053 MiB available memory on the node where the printing process lives
------------------
     c_bands:  1 eigenvalues not converged
     ethr =  9.64E-06,  avg # of iterations = 20.0

     negative rho (up, down):  1.028E-02 0.000E+00

     total cpu time spent up to now is     4243.9 secs

     total energy              =   -3257.30337216 Ry
     estimated scf accuracy    <       0.32918646 Ry

     iteration #181     ecut=    60.00 Ry     beta= 0.20
     Davidson diagonalization with overlap

---- Real-time Memory Report at c_bands before calling an iterative solver
           820 MiB given to the printing process from OS
             0 MiB allocation reported by mallinfo(arena+hblkhd)
        168053 MiB available memory on the node where the printing process lives
------------------
     c_bands:  1 eigenvalues not converged
     ethr =  9.64E-06,  avg # of iterations = 20.0

     negative rho (up, down):  1.027E-02 0.000E+00

     total cpu time spent up to now is     4268.6 secs

     total energy              =   -3257.33787086 Ry
     estimated scf accuracy    <       0.59854010 Ry

     iteration #182     ecut=    60.00 Ry     beta= 0.20
     Davidson diagonalization with overlap

---- Real-time Memory Report at c_bands before calling an iterative solver
           820 MiB given to the printing process from OS
             0 MiB allocation reported by mallinfo(arena+hblkhd)
        168044 MiB available memory on the node where the printing process lives
------------------
     ethr =  9.64E-06,  avg # of iterations = 18.0

     negative rho (up, down):  1.023E-02 0.000E+00

     total cpu time spent up to now is     4291.9 secs

     total energy              =   -3257.33894745 Ry
     estimated scf accuracy    <       0.47781397 Ry

     iteration #183     ecut=    60.00 Ry     beta= 0.20
     Davidson diagonalization with overlap

---- Real-time Memory Report at c_bands before calling an iterative solver
           820 MiB given to the printing process from OS
             0 MiB allocation reported by mallinfo(arena+hblkhd)
        168043 MiB available memory on the node where the printing process lives
------------------
     ethr =  9.64E-06,  avg # of iterations = 18.0

     negative rho (up, down):  1.024E-02 0.000E+00

     total cpu time spent up to now is     4318.5 secs

     total energy              =   -3257.32019452 Ry
     estimated scf accuracy    <       0.81449481 Ry

     iteration #184     ecut=    60.00 Ry     beta= 0.20
     Davidson diagonalization with overlap

---- Real-time Memory Report at c_bands before calling an iterative solver
           820 MiB given to the printing process from OS
             0 MiB allocation reported by mallinfo(arena+hblkhd)
        168040 MiB available memory on the node where the printing process lives
------------------
     ethr =  9.64E-06,  avg # of iterations = 11.0

     negative rho (up, down):  1.024E-02 0.000E+00

     total cpu time spent up to now is     4343.2 secs

     total energy              =   -3257.31937544 Ry
     estimated scf accuracy    <       0.56094084 Ry

     iteration #185     ecut=    60.00 Ry     beta= 0.20
     Davidson diagonalization with overlap

---- Real-time Memory Report at c_bands before calling an iterative solver
           820 MiB given to the printing process from OS
             0 MiB allocation reported by mallinfo(arena+hblkhd)
        168050 MiB available memory on the node where the printing process lives
------------------
     ethr =  9.64E-06,  avg # of iterations =  2.0

     negative rho (up, down):  1.025E-02 0.000E+00

     total cpu time spent up to now is     4363.7 secs

     total energy              =   -3257.31644855 Ry
     estimated scf accuracy    <       0.53564594 Ry

     iteration #186     ecut=    60.00 Ry     beta= 0.20
     Davidson diagonalization with overlap

---- Real-time Memory Report at c_bands before calling an iterative solver
           820 MiB given to the printing process from OS
             0 MiB allocation reported by mallinfo(arena+hblkhd)
        168039 MiB available memory on the node where the printing process lives
------------------
     ethr =  9.64E-06,  avg # of iterations =  2.0

     negative rho (up, down):  1.026E-02 0.000E+00

     total cpu time spent up to now is     4385.9 secs

     total energy              =   -3257.31250847 Ry
     estimated scf accuracy    <       0.52281256 Ry

     iteration #187     ecut=    60.00 Ry     beta= 0.20
     Davidson diagonalization with overlap

---- Real-time Memory Report at c_bands before calling an iterative solver
           820 MiB given to the printing process from OS
             0 MiB allocation reported by mallinfo(arena+hblkhd)
        168042 MiB available memory on the node where the printing process lives
------------------
     ethr =  9.64E-06,  avg # of iterations =  1.0

     negative rho (up, down):  1.027E-02 0.000E+00

     total cpu time spent up to now is     4404.2 secs

     total energy              =   -3257.30251391 Ry
     estimated scf accuracy    <       0.50742567 Ry

     iteration #188     ecut=    60.00 Ry     beta= 0.20
     Davidson diagonalization with overlap

---- Real-time Memory Report at c_bands before calling an iterative solver
           820 MiB given to the printing process from OS
             0 MiB allocation reported by mallinfo(arena+hblkhd)
        168039 MiB available memory on the node where the printing process lives
------------------
     c_bands:  1 eigenvalues not converged
     ethr =  9.64E-06,  avg # of iterations = 20.0

     negative rho (up, down):  1.028E-02 0.000E+00

     total cpu time spent up to now is     4425.2 secs

     total energy              =   -3257.37207005 Ry
     estimated scf accuracy    <       0.27041341 Ry

     iteration #189     ecut=    60.00 Ry     beta= 0.20
     Davidson diagonalization with overlap

---- Real-time Memory Report at c_bands before calling an iterative solver
           820 MiB given to the printing process from OS
             0 MiB allocation reported by mallinfo(arena+hblkhd)
        168034 MiB available memory on the node where the printing process lives
------------------
     ethr =  9.64E-06,  avg # of iterations = 20.0

     negative rho (up, down):  1.027E-02 0.000E+00

     total cpu time spent up to now is     4456.5 secs

     total energy              =   -3257.30469387 Ry
     estimated scf accuracy    <       0.56169712 Ry

     iteration #190     ecut=    60.00 Ry     beta= 0.20
     Davidson diagonalization with overlap

---- Real-time Memory Report at c_bands before calling an iterative solver
           820 MiB given to the printing process from OS
             0 MiB allocation reported by mallinfo(arena+hblkhd)
        168040 MiB available memory on the node where the printing process lives
------------------
     c_bands:  1 eigenvalues not converged
     ethr =  9.64E-06,  avg # of iterations = 20.0

     negative rho (up, down):  1.024E-02 0.000E+00

     total cpu time spent up to now is     4489.6 secs

     total energy              =   -3257.30781164 Ry
     estimated scf accuracy    <       0.39527660 Ry

     iteration #191     ecut=    60.00 Ry     beta= 0.20
     Davidson diagonalization with overlap

---- Real-time Memory Report at c_bands before calling an iterative solver
           820 MiB given to the printing process from OS
             0 MiB allocation reported by mallinfo(arena+hblkhd)
        168042 MiB available memory on the node where the printing process lives
------------------
     c_bands:  1 eigenvalues not converged
     ethr =  9.64E-06,  avg # of iterations = 20.0

     negative rho (up, down):  1.023E-02 0.000E+00

     total cpu time spent up to now is     4511.5 secs

     total energy              =   -3257.31148036 Ry
     estimated scf accuracy    <       0.26508088 Ry

     iteration #192     ecut=    60.00 Ry     beta= 0.20
     Davidson diagonalization with overlap

---- Real-time Memory Report at c_bands before calling an iterative solver
           820 MiB given to the printing process from OS
             0 MiB allocation reported by mallinfo(arena+hblkhd)
        168040 MiB available memory on the node where the printing process lives
------------------
     c_bands:  1 eigenvalues not converged
     ethr =  9.64E-06,  avg # of iterations = 20.0

     negative rho (up, down):  1.024E-02 0.000E+00

     total cpu time spent up to now is     4535.2 secs

     total energy              =   -3257.32585332 Ry
     estimated scf accuracy    <       0.27863221 Ry

     iteration #193     ecut=    60.00 Ry     beta= 0.20
     Davidson diagonalization with overlap

---- Real-time Memory Report at c_bands before calling an iterative solver
           820 MiB given to the printing process from OS
             0 MiB allocation reported by mallinfo(arena+hblkhd)
        168039 MiB available memory on the node where the printing process lives
------------------
     ethr =  9.64E-06,  avg # of iterations = 17.0

     negative rho (up, down):  1.024E-02 0.000E+00

     total cpu time spent up to now is     4558.4 secs

     total energy              =   -3257.32500064 Ry
     estimated scf accuracy    <       0.22621573 Ry

     iteration #194     ecut=    60.00 Ry     beta= 0.20
     Davidson diagonalization with overlap

---- Real-time Memory Report at c_bands before calling an iterative solver
           820 MiB given to the printing process from OS
             0 MiB allocation reported by mallinfo(arena+hblkhd)
        168035 MiB available memory on the node where the printing process lives
------------------
     ethr =  9.64E-06,  avg # of iterations =  2.0

     negative rho (up, down):  1.025E-02 0.000E+00

     total cpu time spent up to now is     4578.9 secs

     total energy              =   -3257.32856218 Ry
     estimated scf accuracy    <       0.22006915 Ry

     iteration #195     ecut=    60.00 Ry     beta= 0.20
     Davidson diagonalization with overlap

---- Real-time Memory Report at c_bands before calling an iterative solver
           820 MiB given to the printing process from OS
             0 MiB allocation reported by mallinfo(arena+hblkhd)
        168034 MiB available memory on the node where the printing process lives
------------------
     ethr =  9.64E-06,  avg # of iterations =  1.0

     negative rho (up, down):  1.026E-02 0.000E+00

     total cpu time spent up to now is     4599.0 secs

     total energy              =   -3257.33295430 Ry
     estimated scf accuracy    <       0.22567114 Ry

     iteration #196     ecut=    60.00 Ry     beta= 0.20
     Davidson diagonalization with overlap

---- Real-time Memory Report at c_bands before calling an iterative solver
           820 MiB given to the printing process from OS
             0 MiB allocation reported by mallinfo(arena+hblkhd)
        168029 MiB available memory on the node where the printing process lives
------------------
     ethr =  9.64E-06,  avg # of iterations =  1.0

     negative rho (up, down):  1.018E-02 0.000E+00

     total cpu time spent up to now is     4619.0 secs

     total energy              =   -3257.25278081 Ry
     estimated scf accuracy    <       0.23533725 Ry

     iteration #197     ecut=    60.00 Ry     beta= 0.20
     Davidson diagonalization with overlap

---- Real-time Memory Report at c_bands before calling an iterative solver
           820 MiB given to the printing process from OS
             0 MiB allocation reported by mallinfo(arena+hblkhd)
        168030 MiB available memory on the node where the printing process lives
------------------
     c_bands:  1 eigenvalues not converged
     ethr =  9.64E-06,  avg # of iterations = 20.0

     negative rho (up, down):  1.019E-02 0.000E+00

     total cpu time spent up to now is     4658.5 secs

     total energy              =   -3257.28302082 Ry
     estimated scf accuracy    <       3.10649300 Ry

     iteration #198     ecut=    60.00 Ry     beta= 0.20
     Davidson diagonalization with overlap

---- Real-time Memory Report at c_bands before calling an iterative solver
           820 MiB given to the printing process from OS
             0 MiB allocation reported by mallinfo(arena+hblkhd)
        168022 MiB available memory on the node where the printing process lives
------------------
     ethr =  9.64E-06,  avg # of iterations = 17.0

     negative rho (up, down):  1.023E-02 0.000E+00

     total cpu time spent up to now is     4688.8 secs

     total energy              =   -3257.31942316 Ry
     estimated scf accuracy    <       0.57121492 Ry

     iteration #199     ecut=    60.00 Ry     beta= 0.20
     Davidson diagonalization with overlap

---- Real-time Memory Report at c_bands before calling an iterative solver
           820 MiB given to the printing process from OS
             0 MiB allocation reported by mallinfo(arena+hblkhd)
        168030 MiB available memory on the node where the printing process lives
------------------
     c_bands:  1 eigenvalues not converged
     ethr =  9.64E-06,  avg # of iterations = 20.0

     negative rho (up, down):  1.023E-02 0.000E+00

     total cpu time spent up to now is     4715.1 secs

     total energy              =   -3257.37717314 Ry
     estimated scf accuracy    <       0.50948331 Ry

     iteration #200     ecut=    60.00 Ry     beta= 0.20
     Davidson diagonalization with overlap

---- Real-time Memory Report at c_bands before calling an iterative solver
           820 MiB given to the printing process from OS
             0 MiB allocation reported by mallinfo(arena+hblkhd)
        168029 MiB available memory on the node where the printing process lives
------------------
     ethr =  9.64E-06,  avg # of iterations = 14.0

     negative rho (up, down):  1.025E-02 0.000E+00

     total cpu time spent up to now is     4741.1 secs

     total energy              =   -3257.37365923 Ry
     estimated scf accuracy    <       0.69287004 Ry

     End of self-consistent calculation

     convergence NOT achieved after 200 iterations: stopping

     Writing config to output data dir ./tmp/MIL125_NH2_convtest.save/ :
     XML data file, charge density distributed wavefunctions

     init_run     :     13.25s CPU     13.81s WALL (       1 calls)
     electrons    :   4587.66s CPU   4727.58s WALL (       1 calls)

     Called by init_run:
     wfcinit      :      8.92s CPU      9.02s WALL (       1 calls)
     wfcinit:atom :      0.02s CPU      0.03s WALL (       1 calls)
     wfcinit:wfcr :      8.75s CPU      8.81s WALL (       1 calls)
     potinit      :      0.92s CPU      1.01s WALL (       1 calls)
     hinit0       :      0.49s CPU      0.52s WALL (       1 calls)

     Called by electrons:
     c_bands      :   3323.67s CPU   3342.61s WALL (     200 calls)
     sum_band     :    827.50s CPU    889.32s WALL (     200 calls)
     v_of_rho     :     90.02s CPU     93.14s WALL (     201 calls)
     v_h          :      6.91s CPU      7.58s WALL (     201 calls)
     v_xc         :     83.11s CPU     85.56s WALL (     201 calls)
     newd         :    300.02s CPU    355.41s WALL (     201 calls)
     PAW_pot      :     22.71s CPU     22.75s WALL (     201 calls)
     mix_rho      :     16.05s CPU     16.44s WALL (     200 calls)
     energy_dftd3 :      0.50s CPU      0.50s WALL (       1 calls)

     Called by c_bands:
     init_us_2    :     20.81s CPU     20.96s WALL (     401 calls)
     cegterg      :   3301.20s CPU   3319.98s WALL (     200 calls)

     Called by sum_band:
     sum_band:wei :      0.00s CPU      0.00s WALL (     200 calls)
     sum_band:loo :    548.05s CPU    550.03s WALL (     200 calls)
     sum_band:buf :      0.00s CPU      0.00s WALL (     200 calls)
     sum_band:ini :     10.41s CPU     10.48s WALL (     200 calls)
     sum_band:cal :    238.40s CPU    238.95s WALL (     200 calls)
     sum_band:bec :      0.36s CPU      0.37s WALL (     200 calls)
     addusdens    :    265.87s CPU    325.10s WALL (     200 calls)
                                        0.00s GPU  (     200 calls)
     addusd:skk   :     18.17s CPU     33.58s WALL (    1000 calls)
                                        0.00s GPU  (    1000 calls)

     Called by *egterg:
     cdiaghg      :    155.35s CPU    155.89s WALL (    2545 calls)
     cegterg:over :    255.66s CPU    256.46s WALL (    2345 calls)
     cegterg:upda :    163.65s CPU    164.23s WALL (    2345 calls)
     cegterg:last :    363.06s CPU    363.96s WALL (     388 calls)
     cdiaghg:chol :      8.52s CPU      8.56s WALL (    2545 calls)
     cdiaghg:inve :      2.72s CPU      2.73s WALL (    2545 calls)
     cdiaghg:para :     37.37s CPU     37.62s WALL (    5090 calls)
     h_psi        :   1871.22s CPU   1881.17s WALL (    2546 calls)
     s_psi        :    414.68s CPU    415.67s WALL (    2546 calls)
     g_psi        :      2.52s CPU      2.54s WALL (    2345 calls)

     Called by h_psi:
     h_psi:calbec :    585.05s CPU    586.57s WALL (    2546 calls)
     vloc_psi     :    863.66s CPU    868.02s WALL (    2546 calls)
     add_vuspsi   :    417.77s CPU    418.79s WALL (    2546 calls)

     General routines
     calbec       :    823.43s CPU    825.51s WALL (    2746 calls)
     fft          :     72.29s CPU     76.55s WALL (    2613 calls)
     ffts         :      3.69s CPU      3.90s WALL (     401 calls)
     fftw         :    864.86s CPU    868.58s WALL (  292886 calls)
     interpolate  :      6.17s CPU      6.40s WALL (     201 calls)
     davcio       :      0.00s CPU      0.03s WALL (      19 calls)

     Parallel routines

     PAW routines
     PAW_pot      :     22.71s CPU     22.75s WALL (     201 calls)

     PWSCF        :      1h16m CPU      1h19m WALL


   This run was terminated on:  22:46:52  10Apr2025            

=------------------------------------------------------------------------------=
   JOB DONE.
=------------------------------------------------------------------------------=
Note: The following floating-point exceptions are signalling: IEEE_DENORMAL
Note: The following floating-point exceptions are signalling: IEEE_DENORMAL
Note: The following floating-point exceptions are signalling: IEEE_DENORMAL
