<PP_INFO>
Generated using "atomic" code by A. Dal Corso  (espresso distribution)     
Author: anonymous   Generation date:  1Sep2009                             
Ti                                                                         
    1        The Pseudo was generated with a Scalar-Relativistic Calculation
    2 1.6600000E+00    L component and cutoff radius for Local Potential
nl pn  l   occ               Rcut            Rcut US             E pseu
3S  1  0  2.00      1.26000000000      1.26000000000     -5.77329735001
3P  2  1  6.00      1.26000000000      1.26000000000     -4.02514819948
3D  3  2  2.00      1.66000000000      1.66000000000     -1.44647043558
</PP_INFO>


<PP_HEADER>
   0                   Version Number
  Ti                   Element
   NC                  Norm - Conserving pseudopotential
    F                  Nonlinear Core Correction
 SLA  PW   PBX  PBC    PBE  Exchange-Correlation functional
   12.00000000000      Z valence
 -114.29270350788      Total energy
      0.000      0.000 Suggested cutoff for wfc and rho
    2                  Max angular momentum component
 1571                  Number of points in mesh
    6    2             Number of Wavefunctions, Number of Projectors
 Wavefunctions         nl  l   occ
                       3S  0  2.00
                       3P  1  6.00
                       3D  2  2.00
                       4S  0  0.00
                       4P  1  0.00
                       4D  2  0.00
</PP_HEADER>


<PP_MESH>
  <PP_R>
  1.52483012683E-05  1.54015492438E-05  1.55563373870E-05  1.57126811770E-05
  1.58705962482E-05  1.60300983922E-05  1.61912035594E-05  1.63539278605E-05
  1.65182875680E-05  1.66842991180E-05  1.68519791118E-05  1.70213443175E-05
  1.71924116719E-05  1.73651982818E-05  1.75397214260E-05  1.77159985569E-05
  1.78940473025E-05  1.80738854677E-05  1.82555310365E-05  1.84390021736E-05
  1.86243172264E-05  1.88114947263E-05  1.90005533914E-05  1.91915121277E-05
  1.93843900312E-05  1.95792063898E-05  1.97759806854E-05  1.99747325955E-05
  2.01754819956E-05  2.03782489606E-05  2.05830537676E-05  2.07899168970E-05
  2.09988590355E-05  2.12099010774E-05  2.14230641271E-05  2.16383695010E-05
  2.18558387299E-05  2.20754935609E-05  2.22973559597E-05  2.25214481126E-05
  2.27477924291E-05  2.29764115438E-05  2.32073283188E-05  2.34405658460E-05
  2.36761474493E-05  2.39140966871E-05  2.41544373545E-05  2.43971934857E-05
  2.46423893566E-05  2.48900494870E-05  2.51401986431E-05  2.53928618400E-05
  2.56480643442E-05  2.59058316763E-05  2.61661896131E-05  2.64291641906E-05
  2.66947817066E-05  2.69630687231E-05  2.72340520688E-05  2.75077588425E-05
  2.77842164150E-05  2.80634524323E-05  2.83454948182E-05  2.86303717772E-05
  2.89181117972E-05  2.92087436525E-05  2.95022964066E-05  2.97987994148E-05
  3.00982823278E-05  3.04007750942E-05  3.07063079634E-05  3.10149114889E-05
  3.13266165315E-05  3.16414542618E-05  3.19594561639E-05  3.22806540383E-05
  3.26050800050E-05  3.29327665068E-05  3.32637463127E-05  3.35980525210E-05
  3.39357185626E-05  3.42767782043E-05  3.46212655523E-05  3.49692150558E-05
  3.53206615099E-05  3.56756400596E-05  3.60341862030E-05  3.63963357951E-05
  3.67621250511E-05  3.71315905502E-05  3.75047692394E-05  3.78816984367E-05
  3.82624158354E-05  3.86469595076E-05  3.90353679079E-05  3.94276798776E-05
  3.98239346481E-05  4.02241718453E-05  4.06284314931E-05  4.10367540180E-05
  4.14491802525E-05  4.18657514395E-05  4.22865092366E-05  4.27114957198E-05
  4.31407533882E-05  4.35743251679E-05  4.40122544164E-05  4.44545849271E-05
  4.49013609332E-05  4.53526271129E-05  4.58084285931E-05  4.62688109543E-05
  4.67338202352E-05  4.72035029371E-05  4.76779060285E-05  4.81570769503E-05
  4.86410636200E-05  4.91299144365E-05  4.96236782854E-05  5.01224045435E-05
  5.06261430839E-05  5.11349442807E-05  5.16488590145E-05  5.21679386773E-05
  5.26922351775E-05  5.32218009451E-05  5.37566889371E-05  5.42969526428E-05
  5.48426460890E-05  5.53938238455E-05  5.59505410306E-05  5.65128533164E-05
  5.70808169347E-05  5.76544886821E-05  5.82339259266E-05  5.88191866121E-05
  5.94103292653E-05  6.00074130009E-05  6.06104975279E-05  6.12196431551E-05
  6.18349107976E-05  6.24563619828E-05  6.30840588562E-05  6.37180641880E-05
  6.43584413794E-05  6.50052544685E-05  6.56585681373E-05  6.63184477176E-05
  6.69849591979E-05  6.76581692300E-05  6.83381451353E-05  6.90249549122E-05
  6.97186672420E-05  7.04193514967E-05  7.11270777452E-05  7.18419167607E-05
  7.25639400278E-05  7.32932197494E-05  7.40298288540E-05  7.47738410032E-05
  7.55253305988E-05  7.62843727904E-05  7.70510434829E-05  7.78254193439E-05
  7.86075778117E-05  7.93975971028E-05  8.01955562197E-05  8.10015349592E-05
  8.18156139196E-05  8.26378745096E-05  8.34683989559E-05  8.43072703116E-05
  8.51545724647E-05  8.60103901459E-05  8.68748089378E-05  8.77479152831E-05
  8.86297964930E-05  8.95205407564E-05  9.04202371484E-05  9.13289756395E-05
  9.22468471044E-05  9.31739433307E-05  9.41103570291E-05  9.50561818416E-05
  9.60115123515E-05  9.69764440926E-05  9.79510735590E-05  9.89354982143E-05
  9.99298165019E-05  1.00934127854E-04  1.01948532704E-04  1.02973132492E-04
  1.04008029678E-04  1.05053327755E-04  1.06109131251E-04  1.07175545750E-04
  1.08252677892E-04  1.09340635392E-04  1.10439527047E-04  1.11549462746E-04
  1.12670553485E-04  1.13802911373E-04  1.14946649647E-04  1.16101882681E-04
  1.17268726001E-04  1.18447296291E-04  1.19637711410E-04  1.20840090399E-04
  1.22054553498E-04  1.23281222154E-04  1.24520219035E-04  1.25771668042E-04
  1.27035694320E-04  1.28312424273E-04  1.29601985576E-04  1.30904507186E-04
  1.32220119355E-04  1.33548953647E-04  1.34891142945E-04  1.36246821469E-04
  1.37616124790E-04  1.38999189837E-04  1.40396154920E-04  1.41807159735E-04
  1.43232345384E-04  1.44671854387E-04  1.46125830696E-04  1.47594419710E-04
  1.49077768288E-04  1.50576024768E-04  1.52089338976E-04  1.53617862244E-04
  1.55161747427E-04  1.56721148914E-04  1.58296222646E-04  1.59887126132E-04
  1.61494018465E-04  1.63117060333E-04  1.64756414044E-04  1.66412243533E-04
  1.68084714386E-04  1.69773993849E-04  1.71480250854E-04  1.73203656027E-04
  1.74944381710E-04  1.76702601976E-04  1.78478492650E-04  1.80272231322E-04
  1.82083997368E-04  1.83913971965E-04  1.85762338112E-04  1.87629280648E-04
  1.89514986268E-04  1.91419643545E-04  1.93343442946E-04  1.95286576852E-04
  1.97249239579E-04  1.99231627394E-04  2.01233938538E-04  2.03256373243E-04
  2.05299133755E-04  2.07362424352E-04  2.09446451363E-04  2.11551423195E-04
  2.13677550345E-04  2.15825045428E-04  2.17994123195E-04  2.20185000557E-04
  2.22397896602E-04  2.24633032622E-04  2.26890632132E-04  2.29170920895E-04
  2.31474126941E-04  2.33800480592E-04  2.36150214487E-04  2.38523563599E-04
  2.40920765267E-04  2.43342059212E-04  2.45787687565E-04  2.48257894893E-04
  2.50752928216E-04  2.53273037042E-04  2.55818473382E-04  2.58389491783E-04
  2.60986349348E-04  2.63609305766E-04  2.66258623333E-04  2.68934566986E-04
  2.71637404318E-04  2.74367405618E-04  2.77124843887E-04  2.79909994871E-04
  2.82723137088E-04  2.85564551855E-04  2.88434523314E-04  2.91333338466E-04
  2.94261287195E-04  2.97218662298E-04  3.00205759514E-04  3.03222877557E-04
  3.06270318140E-04  3.09348386010E-04  3.12457388977E-04  3.15597637943E-04
  3.18769446936E-04  3.21973133139E-04  3.25209016923E-04  3.28477421881E-04
  3.31778674854E-04  3.35113105971E-04  3.38481048678E-04  3.41882839772E-04
  3.45318819435E-04  3.48789331268E-04  3.52294722324E-04  3.55835343147E-04
  3.59411547800E-04  3.63023693907E-04  3.66672142686E-04  3.70357258985E-04
  3.74079411319E-04  3.77838971906E-04  3.81636316704E-04  3.85471825452E-04
  3.89345881704E-04  3.93258872869E-04  3.97211190249E-04  4.01203229078E-04
  4.05235388565E-04  4.09308071929E-04  4.13421686441E-04  4.17576643466E-04
  4.21773358503E-04  4.26012251228E-04  4.30293745532E-04  4.34618269570E-04
  4.38986255797E-04  4.43398141016E-04  4.47854366418E-04  4.52355377629E-04
  4.56901624756E-04  4.61493562426E-04  4.66131649837E-04  4.70816350801E-04
  4.75548133792E-04  4.80327471993E-04  4.85154843342E-04  4.90030730579E-04
  4.94955621298E-04  4.99930007991E-04  5.04954388102E-04  5.10029264072E-04
  5.15155143394E-04  5.20332538659E-04  5.25561967612E-04  5.30843953200E-04
  5.36179023625E-04  5.41567712400E-04  5.47010558397E-04  5.52508105905E-04
  5.58060904685E-04  5.63669510020E-04  5.69334482776E-04  5.75056389455E-04
  5.80835802252E-04  5.86673299113E-04  5.92569463793E-04  5.98524885913E-04
  6.04540161020E-04  6.10615890648E-04  6.16752682373E-04  6.22951149880E-04
  6.29211913022E-04  6.35535597879E-04  6.41922836826E-04  6.48374268591E-04
  6.54890538323E-04  6.61472297655E-04  6.68120204768E-04  6.74834924458E-04
  6.81617128204E-04  6.88467494229E-04  6.95386707578E-04  7.02375460178E-04
  7.09434450908E-04  7.16564385675E-04  7.23765977478E-04  7.31039946481E-04
  7.38387020089E-04  7.45807933013E-04  7.53303427353E-04  7.60874252663E-04
  7.68521166032E-04  7.76244932158E-04  7.84046323425E-04  7.91926119977E-04
  7.99885109801E-04  8.07924088803E-04  8.16043860886E-04  8.24245238036E-04
  8.32529040397E-04  8.40896096355E-04  8.49347242624E-04  8.57883324325E-04
  8.66505195073E-04  8.75213717063E-04  8.84009761154E-04  8.92894206958E-04
  9.01867942926E-04  9.10931866440E-04  9.20086883900E-04  9.29333910815E-04
  9.38673871896E-04  9.48107701146E-04  9.57636341956E-04  9.67260747199E-04
  9.76981879322E-04  9.86800710448E-04  9.96718222466E-04  1.00673540714E-03
  1.01685326619E-03  1.02707281141E-03  1.03739506478E-03  1.04782105851E-03
  1.05835183522E-03  1.06898844800E-03  1.07973196051E-03  1.09058344712E-03
  1.10154399299E-03  1.11261469417E-03  1.12379665774E-03  1.13509100192E-03
  1.14649885615E-03  1.15802136121E-03  1.16965966938E-03  1.18141494449E-03
  1.19328836208E-03  1.20528110950E-03  1.21739438603E-03  1.22962940302E-03
  1.24198738397E-03  1.25446956469E-03  1.26707719342E-03  1.27981153092E-03
  1.29267385064E-03  1.30566543883E-03  1.31878759465E-03  1.33204163032E-03
  1.34542887127E-03  1.35895065622E-03  1.37260833738E-03  1.38640328051E-03
  1.40033686513E-03  1.41441048459E-03  1.42862554629E-03  1.44298347173E-03
  1.45748569672E-03  1.47213367150E-03  1.48692886086E-03  1.50187274436E-03
  1.51696681638E-03  1.53221258634E-03  1.54761157885E-03  1.56316533379E-03
  1.57887540658E-03  1.59474336822E-03  1.61077080553E-03  1.62695932126E-03
  1.64331053427E-03  1.65982607972E-03  1.67650760915E-03  1.69335679074E-03
  1.71037530942E-03  1.72756486705E-03  1.74492718262E-03  1.76246399235E-03
  1.78017704995E-03  1.79806812675E-03  1.81613901185E-03  1.83439151237E-03
  1.85282745356E-03  1.87144867905E-03  1.89025705096E-03  1.90925445016E-03
  1.92844277639E-03  1.94782394850E-03  1.96739990463E-03  1.98717260240E-03
  2.00714401908E-03  2.02731615183E-03  2.04769101789E-03  2.06827065476E-03
  2.08905712041E-03  2.11005249352E-03  2.13125887364E-03  2.15267838142E-03
  2.17431315883E-03  2.19616536937E-03  2.21823719827E-03  2.24053085275E-03
  2.26304856218E-03  2.28579257835E-03  2.30876517568E-03  2.33196865145E-03
  2.35540532603E-03  2.37907754311E-03  2.40298766993E-03  2.42713809751E-03
  2.45153124093E-03  2.47616953951E-03  2.50105545711E-03  2.52619148234E-03
  2.55158012882E-03  2.57722393545E-03  2.60312546661E-03  2.62928731249E-03
  2.65571208930E-03  2.68240243952E-03  2.70936103222E-03  2.73659056329E-03
  2.76409375569E-03  2.79187335977E-03  2.81993215352E-03  2.84827294283E-03
  2.87689856180E-03  2.90581187303E-03  2.93501576787E-03  2.96451316673E-03
  2.99430701938E-03  3.02440030523E-03  3.05479603362E-03  3.08549724417E-03
  3.11650700701E-03  3.14782842315E-03  3.17946462476E-03  3.21141877547E-03
  3.24369407074E-03  3.27629373813E-03  3.30922103761E-03  3.34247926196E-03
  3.37607173702E-03  3.41000182206E-03  3.44427291013E-03  3.47888842836E-03
  3.51385183833E-03  3.54916663642E-03  3.58483635412E-03  3.62086455845E-03
  3.65725485225E-03  3.69401087459E-03  3.73113630109E-03  3.76863484433E-03
  3.80651025419E-03  3.84476631825E-03  3.88340686215E-03  3.92243574997E-03
  3.96185688464E-03  4.00167420829E-03  4.04189170270E-03  4.08251338965E-03
  4.12354333134E-03  4.16498563080E-03  4.20684443229E-03  4.24912392173E-03
  4.29182832710E-03  4.33496191889E-03  4.37852901048E-03  4.42253395862E-03
  4.46698116383E-03  4.51187507089E-03  4.55722016922E-03  4.60302099336E-03
  4.64928212343E-03  4.69600818560E-03  4.74320385249E-03  4.79087384372E-03
  4.83902292633E-03  4.88765591526E-03  4.93677767386E-03  4.98639311434E-03
  5.03650719829E-03  5.08712493715E-03  5.13825139275E-03  5.18989167777E-03
  5.24205095628E-03  5.29473444425E-03  5.34794741008E-03  5.40169517511E-03
  5.45598311416E-03  5.51081665606E-03  5.56620128423E-03  5.62214253716E-03
  5.67864600903E-03  5.73571735023E-03  5.79336226795E-03  5.85158652672E-03
  5.91039594902E-03  5.96979641584E-03  6.02979386728E-03  6.09039430313E-03
  6.15160378348E-03  6.21342842934E-03  6.27587442322E-03  6.33894800978E-03
  6.40265549641E-03  6.46700325393E-03  6.53199771717E-03  6.59764538562E-03
  6.66395282411E-03  6.73092666343E-03  6.79857360103E-03  6.86690040165E-03
  6.93591389804E-03  7.00562099160E-03  7.07602865309E-03  7.14714392335E-03
  7.21897391395E-03  7.29152580796E-03  7.36480686063E-03  7.43882440012E-03
  7.51358582825E-03  7.58909862123E-03  7.66537033039E-03  7.74240858297E-03
  7.82022108287E-03  7.89881561138E-03  7.97820002805E-03  8.05838227136E-03
  8.13937035961E-03  8.22117239169E-03  8.30379654785E-03  8.38725109059E-03
  8.47154436543E-03  8.55668480176E-03  8.64268091371E-03  8.72954130094E-03
  8.81727464959E-03  8.90588973304E-03  8.99539541289E-03  9.08580063978E-03
  9.17711445430E-03  9.26934598792E-03  9.36250446386E-03  9.45659919805E-03
  9.55163960003E-03  9.64763517394E-03  9.74459551941E-03  9.84253033255E-03
  9.94144940692E-03  1.00413626345E-02  1.01422800067E-02  1.02442116154E-02
  1.03471676538E-02  1.04511584176E-02  1.05561943059E-02  1.06622858224E-02
  1.07694435765E-02  1.08776782838E-02  1.09870007680E-02  1.10974219615E-02
  1.12089529064E-02  1.13216047560E-02  1.14353887754E-02  1.15503163433E-02
  1.16663989524E-02  1.17836482112E-02  1.19020758446E-02  1.20216936954E-02
  1.21425137257E-02  1.22645480175E-02  1.23878087743E-02  1.25123083223E-02
  1.26380591115E-02  1.27650737172E-02  1.28933648409E-02  1.30229453118E-02
  1.31538280881E-02  1.32860262582E-02  1.34195530420E-02  1.35544217923E-02
  1.36906459960E-02  1.38282392758E-02  1.39672153910E-02  1.41075882393E-02
  1.42493718583E-02  1.43925804263E-02  1.45372282644E-02  1.46833298374E-02
  1.48308997556E-02  1.49799527761E-02  1.51305038045E-02  1.52825678958E-02
  1.54361602566E-02  1.55912962463E-02  1.57479913786E-02  1.59062613232E-02
  1.60661219072E-02  1.62275891168E-02  1.63906790988E-02  1.65554081623E-02
  1.67217927805E-02  1.68898495919E-02  1.70595954023E-02  1.72310471865E-02
  1.74042220898E-02  1.75791374298E-02  1.77558106981E-02  1.79342595623E-02
  1.81145018675E-02  1.82965556379E-02  1.84804390791E-02  1.86661705797E-02
  1.88537687128E-02  1.90432522385E-02  1.92346401054E-02  1.94279514522E-02
  1.96232056104E-02  1.98204221055E-02  2.00196206594E-02  2.02208211920E-02
  2.04240438235E-02  2.06293088765E-02  2.08366368775E-02  2.10460485596E-02
  2.12575648641E-02  2.14712069428E-02  2.16869961600E-02  2.19049540950E-02
  2.21251025436E-02  2.23474635210E-02  2.25720592632E-02  2.27989122303E-02
  2.30280451075E-02  2.32594808085E-02  2.34932424769E-02  2.37293534891E-02
  2.39678374565E-02  2.42087182276E-02  2.44520198907E-02  2.46977667761E-02
  2.49459834588E-02  2.51966947607E-02  2.54499257530E-02  2.57057017591E-02
  2.59640483568E-02  2.62249913809E-02  2.64885569261E-02  2.67547713490E-02
  2.70236612714E-02  2.72952535824E-02  2.75695754415E-02  2.78466542811E-02
  2.81265178094E-02  2.84091940129E-02  2.86947111594E-02  2.89830978010E-02
  2.92743827765E-02  2.95685952147E-02  2.98657645370E-02  3.01659204607E-02
  3.04690930016E-02  3.07753124772E-02  3.10846095097E-02  3.13970150290E-02
  3.17125602760E-02  3.20312768054E-02  3.23531964892E-02  3.26783515196E-02
  3.30067744124E-02  3.33384980102E-02  3.36735554855E-02  3.40119803445E-02
  3.43538064298E-02  3.46990679244E-02  3.50477993547E-02  3.54000355942E-02
  3.57558118667E-02  3.61151637502E-02  3.64781271801E-02  3.68447384532E-02
  3.72150342308E-02  3.75890515429E-02  3.79668277914E-02  3.83484007544E-02
  3.87338085894E-02  3.91230898375E-02  3.95162834272E-02  3.99134286782E-02
  4.03145653053E-02  4.07197334226E-02  4.11289735471E-02  4.15423266032E-02
  4.19598339267E-02  4.23815372685E-02  4.28074787993E-02  4.32377011137E-02
  4.36722472342E-02  4.41111606158E-02  4.45544851503E-02  4.50022651704E-02
  4.54545454545E-02  4.59113712311E-02  4.63727881830E-02  4.68388424524E-02
  4.73095806451E-02  4.77850498353E-02  4.82652975702E-02  4.87503718752E-02
  4.92403212580E-02  4.97351947139E-02  5.02350417307E-02  5.07399122936E-02
  5.12498568900E-02  5.17649265148E-02  5.22851726753E-02  5.28106473967E-02
  5.33414032269E-02  5.38774932418E-02  5.44189710510E-02  5.49658908026E-02
  5.55183071891E-02  5.60762754526E-02  5.66398513903E-02  5.72090913604E-02
  5.77840522873E-02  5.83647916676E-02  5.89513675757E-02  5.95438386697E-02
  6.01422641972E-02  6.07467040012E-02  6.13572185262E-02  6.19738688242E-02
  6.25967165607E-02  6.32258240211E-02  6.38612541165E-02  6.45030703906E-02
  6.51513370255E-02  6.58061188483E-02  6.64674813379E-02  6.71354906310E-02
  6.78102135291E-02  6.84917175051E-02  6.91800707099E-02  6.98753419795E-02
  7.05776008414E-02  7.12869175223E-02  7.20033629543E-02  7.27270087826E-02
  7.34579273724E-02  7.41961918162E-02  7.49418759409E-02  7.56950543157E-02
  7.64558022590E-02  7.72241958463E-02  7.80003119175E-02  7.87842280849E-02
  7.95760227407E-02  8.03757750652E-02  8.11835650341E-02  8.19994734272E-02
  8.28235818359E-02  8.36559726719E-02  8.44967291748E-02  8.53459354211E-02
  8.62036763320E-02  8.70700376824E-02  8.79451061092E-02  8.88289691198E-02
  8.97217151014E-02  9.06234333292E-02  9.15342139759E-02  9.24541481203E-02
  9.33833277565E-02  9.43218458034E-02  9.52697961134E-02  9.62272734824E-02
  9.71943736589E-02  9.81711933539E-02  9.91578302499E-02  1.00154383012E-01
  1.01160951295E-01  1.02177635758E-01  1.03204538070E-01  1.04241760921E-01
  1.05289408036E-01  1.06347584178E-01  1.07416395168E-01  1.08495947887E-01
  1.09586350292E-01  1.10687711422E-01  1.11800141416E-01  1.12923751517E-01
  1.14058654088E-01  1.15204962619E-01  1.16362791742E-01  1.17532257242E-01
  1.18713476065E-01  1.19906566334E-01  1.21111647360E-01  1.22328839652E-01
  1.23558264930E-01  1.24800046137E-01  1.26054307453E-01  1.27321174305E-01
  1.28600773380E-01  1.29893232639E-01  1.31198681330E-01  1.32517249999E-01
  1.33849070503E-01  1.35194276026E-01  1.36553001088E-01  1.37925381565E-01
  1.39311554695E-01  1.40711659097E-01  1.42125834781E-01  1.43554223168E-01
  1.44996967096E-01  1.46454210842E-01  1.47926100131E-01  1.49412782154E-01
  1.50914405579E-01  1.52431120570E-01  1.53963078801E-01  1.55510433468E-01
  1.57073339307E-01  1.58651952612E-01  1.60246431244E-01  1.61856934653E-01
  1.63483623890E-01  1.65126661625E-01  1.66786212165E-01  1.68462441464E-01
  1.70155517148E-01  1.71865608526E-01  1.73592886608E-01  1.75337524123E-01
  1.77099695536E-01  1.78879577067E-01  1.80677346704E-01  1.82493184227E-01
  1.84327271220E-01  1.86179791094E-01  1.88050929102E-01  1.89940872360E-01
  1.91849809863E-01  1.93777932508E-01  1.95725433107E-01  1.97692506412E-01
  1.99679349133E-01  2.01686159955E-01  2.03713139561E-01  2.05760490651E-01
  2.07828417961E-01  2.09917128286E-01  2.12026830499E-01  2.14157735572E-01
  2.16310056597E-01  2.18484008808E-01  2.20679809602E-01  2.22897678560E-01
  2.25137837473E-01  2.27400510356E-01  2.29685923480E-01  2.31994305388E-01
  2.34325886920E-01  2.36680901235E-01  2.39059583838E-01  2.41462172599E-01
  2.43888907778E-01  2.46340032051E-01  2.48815790533E-01  2.51316430801E-01
  2.53842202922E-01  2.56393359474E-01  2.58970155576E-01  2.61572848909E-01
  2.64201699746E-01  2.66856970972E-01  2.69538928118E-01  2.72247839381E-01
  2.74983975655E-01  2.77747610556E-01  2.80539020449E-01  2.83358484478E-01
  2.86206284592E-01  2.89082705573E-01  2.91988035065E-01  2.94922563604E-01
  2.97886584645E-01  3.00880394593E-01  3.03904292831E-01  3.06958581751E-01
  3.10043566786E-01  3.13159556436E-01  3.16306862302E-01  3.19485799118E-01
  3.22696684780E-01  3.25939840379E-01  3.29215590235E-01  3.32524261923E-01
  3.35866186315E-01  3.39241697605E-01  3.42651133348E-01  3.46094834490E-01
  3.49573145404E-01  3.53086413923E-01  3.56634991378E-01  3.60219232630E-01
  3.63839496104E-01  3.67496143832E-01  3.71189541480E-01  3.74920058392E-01
  3.78688067622E-01  3.82493945975E-01  3.86338074040E-01  3.90220836235E-01
  3.94142620839E-01  3.98103820034E-01  4.02104829942E-01  4.06146050668E-01
  4.10227886338E-01  4.14350745138E-01  4.18515039358E-01  4.22721185431E-01
  4.26969603975E-01  4.31260719834E-01  4.35594962126E-01  4.39972764276E-01
  4.44394564069E-01  4.48860803690E-01  4.53371929764E-01  4.57928393410E-01
  4.62530650276E-01  4.67179160593E-01  4.71874389215E-01  4.76616805669E-01
  4.81406884202E-01  4.86245103823E-01  4.91131948361E-01  4.96067906502E-01
  5.01053471847E-01  5.06089142958E-01  5.11175423404E-01  5.16312821818E-01
  5.21501851945E-01  5.26743032692E-01  5.32036888181E-01  5.37383947802E-01
  5.42784746266E-01  5.48239823657E-01  5.53749725487E-01  5.59315002750E-01
  5.64936211981E-01  5.70613915303E-01  5.76348680492E-01  5.82141081030E-01
  5.87991696161E-01  5.93901110952E-01  5.99869916348E-01  6.05898709236E-01
  6.11988092500E-01  6.18138675083E-01  6.24351072049E-01  6.30625904642E-01
  6.36963800352E-01  6.43365392972E-01  6.49831322667E-01  6.56362236036E-01
  6.62958786176E-01  6.69621632747E-01  6.76351442040E-01  6.83148887040E-01
  6.90014647498E-01  6.96949409996E-01  7.03953868015E-01  7.11028722009E-01
  7.18174679466E-01  7.25392454991E-01  7.32682770365E-01  7.40046354627E-01
  7.47483944141E-01  7.54996282672E-01  7.62584121461E-01  7.70248219297E-01
  7.77989342598E-01  7.85808265480E-01  7.93705769845E-01  8.01682645447E-01
  8.09739689982E-01  8.17877709161E-01  8.26097516793E-01  8.34399934864E-01
  8.42785793625E-01  8.51255931667E-01  8.59811196012E-01  8.68452442192E-01
  8.77180534341E-01  8.85996345274E-01  8.94900756580E-01  9.03894658707E-01
  9.12978951054E-01  9.22154542056E-01  9.31422349281E-01  9.40783299518E-01
  9.50238328868E-01  9.59788382843E-01  9.69434416456E-01  9.79177394318E-01
  9.89018290736E-01  9.98958089807E-01  1.00899778552E+00  1.01913838185E+00
  1.02938089287E+00  1.03972634284E+00  1.05017576631E+00  1.06073020822E+00
  1.07139072405E+00  1.08215837984E+00  1.09303425237E+00  1.10401942923E+00
  1.11511500896E+00  1.12632210112E+00  1.13764182642E+00  1.14907531686E+00
  1.16062371579E+00  1.17228817805E+00  1.18406987011E+00  1.19596997015E+00
  1.20798966818E+00  1.22013016618E+00  1.23239267821E+00  1.24477843054E+00
  1.25728866175E+00  1.26992462287E+00  1.28268757752E+00  1.29557880199E+00
  1.30859958542E+00  1.32175122990E+00  1.33503505060E+00  1.34845237593E+00
  1.36200454761E+00  1.37569292088E+00  1.38951886459E+00  1.40348376135E+00
  1.41758900765E+00  1.43183601403E+00  1.44622620521E+00  1.46076102022E+00
  1.47544191254E+00  1.49027035028E+00  1.50524781630E+00  1.52037580836E+00
  1.53565583927E+00  1.55108943703E+00  1.56667814504E+00  1.58242352216E+00
  1.59832714296E+00  1.61439059780E+00  1.63061549305E+00  1.64700345120E+00
  1.66355611108E+00  1.68027512795E+00  1.69716217373E+00  1.71421893714E+00
  1.73144712388E+00  1.74884845677E+00  1.76642467597E+00  1.78417753910E+00
  1.80210882148E+00  1.82022031624E+00  1.83851383455E+00  1.85699120577E+00
  1.87565427766E+00  1.89450491655E+00  1.91354500750E+00  1.93277645455E+00
  1.95220118085E+00  1.97182112890E+00  1.99163826071E+00  2.01165455800E+00
  2.03187202242E+00  2.05229267574E+00  2.07291856004E+00  2.09375173792E+00
  2.11479429272E+00  2.13604832871E+00  2.15751597131E+00  2.17919936731E+00
  2.20110068506E+00  2.22322211472E+00  2.24556586843E+00  2.26813418061E+00
  2.29092930809E+00  2.31395353042E+00  2.33720915002E+00  2.36069849249E+00
  2.38442390678E+00  2.40838776544E+00  2.43259246489E+00  2.45704042561E+00
  2.48173409242E+00  2.50667593470E+00  2.53186844667E+00  2.55731414760E+00
  2.58301558207E+00  2.60897532025E+00  2.63519595813E+00  2.66168011781E+00
  2.68843044772E+00  2.71544962292E+00  2.74274034533E+00  2.77030534407E+00
  2.79814737566E+00  2.82626922431E+00  2.85467370224E+00  2.88336364991E+00
  2.91234193636E+00  2.94161145943E+00  2.97117514609E+00  3.00103595275E+00
  3.03119686550E+00  3.06166090046E+00  3.09243110406E+00  3.12351055336E+00
  3.15490235631E+00  3.18660965212E+00  3.21863561156E+00  3.25098343724E+00
  3.28365636397E+00  3.31665765907E+00  3.34999062271E+00  3.38365858820E+00
  3.41766492236E+00  3.45201302587E+00  3.48670633356E+00  3.52174831478E+00
  3.55714247378E+00  3.59289234998E+00  3.62900151841E+00  3.66547359002E+00
  3.70231221204E+00  3.73952106837E+00  3.77710387992E+00  3.81506440501E+00
  3.85340643972E+00  3.89213381828E+00  3.93125041347E+00  3.97076013697E+00
  4.01066693980E+00  4.05097481267E+00  4.09168778639E+00  4.13280993230E+00
  4.17434536264E+00  4.21629823101E+00  4.25867273270E+00  4.30147310522E+00
  4.34470362864E+00  4.38836862604E+00  4.43247246396E+00  4.47701955282E+00
  4.52201434736E+00  4.56746134711E+00  4.61336509680E+00  4.65973018684E+00
  4.70656125379E+00  4.75386298078E+00  4.80164009803E+00  4.84989738329E+00
  4.89863966234E+00  4.94787180943E+00  4.99759874782E+00  5.04782545026E+00
  5.09855693945E+00  5.14979828858E+00  5.20155462183E+00  5.25383111487E+00
  5.30663299541E+00  5.35996554367E+00  5.41383409295E+00  5.46824403015E+00
  5.52320079631E+00  5.57870988715E+00  5.63477685363E+00  5.69140730249E+00
  5.74860689682E+00  5.80638135664E+00  5.86473645943E+00  5.92367804075E+00
  5.98321199481E+00  6.04334427506E+00  6.10408089477E+00  6.16542792766E+00
  6.22739150848E+00  6.28997783363E+00  6.35319316182E+00  6.41704381461E+00
  6.48153617714E+00  6.54667669868E+00  6.61247189335E+00  6.67892834071E+00
  6.74605268648E+00  6.81385164314E+00  6.88233199064E+00  6.95150057707E+00
  7.02136431936E+00  7.09193020393E+00  7.16320528743E+00  7.23519669742E+00
  7.30791163312E+00  7.38135736607E+00  7.45554124090E+00  7.53047067608E+00
  7.60615316460E+00  7.68259627477E+00  7.75980765097E+00  7.83779501440E+00
  7.91656616387E+00  7.99612897655E+00  8.07649140879E+00  8.15766149690E+00
  8.23964735796E+00  8.32245719062E+00  8.40609927594E+00  8.49058197819E+00
  8.57591374571E+00  8.66210311176E+00  8.74915869533E+00  8.83708920206E+00
  8.92590342508E+00  9.01561024588E+00  9.10621863522E+00  9.19773765401E+00
  9.29017645423E+00  9.38354427983E+00  9.47785046769E+00  9.57310444849E+00
  9.66931574771E+00  9.76649398656E+00  9.86464888295E+00  9.96379025245E+00
  1.00639280093E+01  1.01650721673E+01  1.02672328410E+01  1.03704202465E+01
  1.04746447028E+01  1.05799166322E+01  1.06862465621E+01  1.07936451255E+01
  1.09021230625E+01  1.10116912208E+01  1.11223605575E+01  1.12341421394E+01
  1.13470471450E+01  1.14610868647E+01  1.15762727027E+01  1.16926161775E+01
  1.18101289238E+01  1.19288226927E+01  1.20487093539E+01  1.21698008961E+01
  1.22921094285E+01  1.24156471820E+01  1.25404265107E+01  1.26664598924E+01
  1.27937599307E+01  1.29223393556E+01  1.30522110253E+01  1.31833879269E+01
  1.33158831783E+01  1.34497100291E+01  1.35848818621E+01  1.37214121947E+01
  1.38593146799E+01  1.39986031081E+01  1.41392914082E+01  1.42813936493E+01
  1.44249240417E+01  1.45698969385E+01  1.47163268371E+01  1.48642283807E+01
  1.50136163595E+01  1.51645057125E+01  1.53169115286E+01  1.54708490487E+01
  1.56263336666E+01  1.57833809309E+01  1.59420065464E+01  1.61022263758E+01
  1.62640564413E+01  1.64275129260E+01  1.65926121757E+01  1.67593707004E+01
  1.69278051762E+01  1.70979324466E+01  1.72697695245E+01  1.74433335937E+01
  1.76186420108E+01  1.77957123068E+01  1.79745621889E+01  1.81552095421E+01
  1.83376724315E+01  1.85219691034E+01  1.87081179876E+01  1.88961376992E+01
  1.90860470403E+01  1.92778650020E+01  1.94716107663E+01  1.96673037079E+01
  1.98649633963E+01  2.00646095975E+01  2.02662622765E+01  2.04699415985E+01
  2.06756679318E+01  2.08834618491E+01  2.10933441300E+01  2.13053357628E+01
  2.15194579470E+01  2.17357320950E+01  2.19541798342E+01  2.21748230097E+01
  2.23976836861E+01  2.26227841494E+01  2.28501469100E+01  2.30797947044E+01
  2.33117504974E+01  2.35460374849E+01  2.37826790958E+01  2.40216989944E+01
  2.42631210830E+01  2.45069695038E+01  2.47532686421E+01  2.50020431278E+01
  2.52533178387E+01  2.55071179024E+01  2.57634686992E+01  2.60223958643E+01
  2.62839252906E+01  2.65480831314E+01  2.68148958027E+01  2.70843899858E+01
  2.73565926305E+01  2.76315309573E+01  2.79092324603E+01  2.81897249097E+01
  2.84730363551E+01  2.87591951278E+01  2.90482298441E+01  2.93401694075E+01
  2.96350430123E+01  2.99328801461E+01  3.02337105929E+01  3.05375644360E+01
  3.08444720609E+01  3.11544641587E+01  3.14675717289E+01  3.17838260825E+01
  3.21032588452E+01  3.24259019606E+01  3.27517876931E+01  3.30809486318E+01
  3.34134176928E+01  3.37492281235E+01  3.40884135051E+01  3.44310077564E+01
  3.47770451373E+01  3.51265602516E+01  3.54795880512E+01  3.58361638392E+01
  3.61963232735E+01  3.65601023702E+01  3.69275375076E+01  3.72986654296E+01
  3.76735232492E+01  3.80521484525E+01  3.84345789023E+01  3.88208528421E+01