--------------------------------------------------------------------------
WARNING: There was an error initializing an OpenFabrics device.

  Local host:   ga01
  Local device: mlx5_0
--------------------------------------------------------------------------

     Program PWSCF v.7.3.1 starts on 10Apr2025 at 17:44:46 

     This program is part of the open-source Quantum ESPRESSO suite
     for quantum simulation of materials; please cite
         "P. Giannozzi et al., J. Phys.:Condens. Matter 21 395502 (2009);
         "P. Giannozzi et al., J. Phys.:Condens. Matter 29 465901 (2017);
         "P. Giannozzi et al., J. Chem. Phys. 152 154105 (2020);
          URL http://www.quantum-espresso.org", 
     in publications or presentations arising from this work. More details at
     http://www.quantum-espresso.org/quote

     Parallel version (MPI), running on    31 processors

     MPI processes distributed on     1 nodes
     179900 MiB available memory on the printing compute node when the environment starts

     Waiting for input...
     Reading input from standard input

     Current dimensions of program PWSCF are:
     Max number of different atomic species (ntypx) = 10
     Max number of k-points (npk) =  40000
     Max angular momentum in pseudopotentials (lmaxx) =  4
     file C.pbe-n-kjpaw_psl.1.0.0.UPF: wavefunction(s)  2S 2P renormalized
     file O.pbe-n-kjpaw_psl.0.1.UPF: wavefunction(s)  2P renormalized

     R & G space division:  proc/nbgrp/npool/nimage =      31
     Subspace diagonalization in iterative solution of the eigenvalue problem:
     one sub-group per band group will be used
     custom distributed-memory algorithm (size of sub-group:  3*  3 procs)


     Parallelization info
     --------------------
     sticks:   dense  smooth     PW     G-vecs:    dense   smooth      PW
     Min         627     358     89                56842    24550    3065
     Max         628     359     90                56846    24554    3068
     Sum       19453   11103   2769              1762151   761105   95047

     Using Slab Decomposition



     bravais-lattice index     =            0
     lattice parameter (alat)  =      30.7168  a.u.
     unit-cell volume          =   22271.6335 (a.u.)^3
     number of atoms/cell      =          124
     number of atomic types    =            5
     number of electrons       =       526.00
     number of Kohn-Sham states=          263
     kinetic-energy cutoff     =      40.0000  Ry
     charge density cutoff     =     280.0000  Ry
     scf convergence threshold =      1.0E-06
     mixing beta               =       0.2000
     number of iterations used =            8  plain     mixing
     energy convergence thresh.=      1.0E-04
     force convergence thresh. =      1.0E-03
     press convergence thresh. =      5.0E-01
     Exchange-correlation= SLA  PW   PBX  PBC
                           (   1   4   3   4   0   0   0)
     nstep                     =          300


     celldm(1)=  30.716808  celldm(2)=   0.000000  celldm(3)=   0.000000
     celldm(4)=   0.000000  celldm(5)=   0.000000  celldm(6)=   0.000000

     crystal axes: (cart. coord. in units of alat)
               a(1) = (   1.000000   0.000000   0.000000 )  
               a(2) = (  -0.378163   0.925739   0.000000 )  
               a(3) = (  -0.310919  -0.462870   0.830109 )  

     reciprocal axes: (cart. coord. in units 2 pi/alat)
               b(1) = (  1.000000  0.408499  0.602330 )  
               b(2) = ( -0.000000  1.080218  0.602330 )  
               b(3) = (  0.000000 -0.000000  1.204661 )  


     PseudoPot. # 1 for Ti read from file:
     /home/yongsang/Research/PSID_server_room/qe/[00]QE/qepseudo/SSSP_1.3.0_PBE_efficiency/ti_pbe_v1.4.uspp.F.UPF
     MD5 check sum: 88a00a6731bd790ddea75d31a80cb452
     Pseudo is Ultrasoft + core correction, Zval = 12.0
     Generated by new atomic code, or converted to UPF format
     Using radial grid of  851 points,  6 beta functions with: 
                l(1) =   0
                l(2) =   0
                l(3) =   1
                l(4) =   1
                l(5) =   2
                l(6) =   2
     Q(r) pseudized with  6 coefficients,  rinner =    1.000   1.000   1.000
                                                       1.000   1.000

     PseudoPot. # 2 for N  read from file:
     /home/yongsang/Research/PSID_server_room/qe/[00]QE/qepseudo/SSSP_1.3.0_PBE_efficiency/N.pbe-n-radius_5.UPF
     MD5 check sum: 16739722b17309cd8fe442a2ace49922
     Pseudo is Ultrasoft + core correction, Zval =  5.0
     Generated using "atomic" code by A. Dal Corso  v.5.1
     Using radial grid of 1085 points,  4 beta functions with: 
                l(1) =   0
                l(2) =   0
                l(3) =   1
                l(4) =   1
     Q(r) pseudized with 0 coefficients 


     PseudoPot. # 3 for C  read from file:
     /home/yongsang/Research/PSID_server_room/qe/[00]QE/qepseudo/SSSP_1.3.0_PBE_efficiency/C.pbe-n-kjpaw_psl.1.0.0.UPF
     MD5 check sum: 5d2aebdfa2cae82b50a7e79e9516da0f
     Pseudo is Projector augmented-wave + core cor, Zval =  4.0
     Generated using "atomic" code by A. Dal Corso  v.5.1
     Shape of augmentation charge: PSQ
     Using radial grid of 1073 points,  4 beta functions with: 
                l(1) =   0
                l(2) =   0
                l(3) =   1
                l(4) =   1
     Q(r) pseudized with 0 coefficients 


     PseudoPot. # 4 for H  read from file:
     /home/yongsang/Research/PSID_server_room/qe/[00]QE/qepseudo/SSSP_1.3.0_PBE_efficiency/H.pbe-rrkjus_psl.1.0.0.UPF
     MD5 check sum: f52b6d4d1c606e5624b1dc7b2218f220
     Pseudo is Ultrasoft, Zval =  1.0
     Generated using "atomic" code by A. Dal Corso  v.5.1
     Using radial grid of  929 points,  2 beta functions with: 
                l(1) =   0
                l(2) =   0
     Q(r) pseudized with 0 coefficients 


     PseudoPot. # 5 for O  read from file:
     /home/yongsang/Research/PSID_server_room/qe/[00]QE/qepseudo/SSSP_1.3.0_PBE_efficiency/O.pbe-n-kjpaw_psl.0.1.UPF
     MD5 check sum: 0234752ac141de4415c5fc33072bef88
     Pseudo is Projector augmented-wave + core cor, Zval =  6.0
     Generated using "atomic" code by A. Dal Corso  v.5.0.99 svn rev. 10869
     Shape of augmentation charge: BESSEL
     Using radial grid of 1095 points,  4 beta functions with: 
                l(1) =   0
                l(2) =   0
                l(3) =   1
                l(4) =   1
     Q(r) pseudized with 0 coefficients 


     atomic species   valence    mass     pseudopotential
     Ti               12.00    47.86700     Ti( 1.00)
     N                 5.00    14.00674     N ( 1.00)
     C                 4.00    12.01070     C ( 1.00)
     H                 1.00     1.00794     H ( 1.00)
     O                 6.00    15.99940     O ( 1.00)

     No symmetry found


                                    s                        frac. trans.

      isym =  1     identity                                     

 cryst.   s( 1) = (     1          0          0      )
                  (     0          1          0      )
                  (     0          0          1      )

 cart.    s( 1) = (  1.0000000  0.0000000  0.0000000 )
                  (  0.0000000  1.0000000  0.0000000 )
                  (  0.0000000  0.0000000  1.0000000 )


   Cartesian axes

     site n.     atom                  positions (alat units)
         1        Ti     tau(   1) = (  -0.1943417   0.1305430   0.7153135  )
         2        Ti     tau(   2) = (   0.5052601   0.3323264   0.1147958  )
         3        Ti     tau(   3) = (   0.0952930  -0.0640103   0.5959936  )
         4        Ti     tau(   4) = (   0.2156253   0.5268797   0.2341157  )
         5        Ti     tau(   5) = (   0.1165768   0.5934126   0.1147958  )
         6        Ti     tau(   6) = (   0.1943416  -0.1305432   0.7153135  )
         7        Ti     tau(   7) = (  -0.0952932   0.0640101   0.5959936  )
         8        Ti     tau(   8) = (   0.4062115   0.3988592   0.2341157  )
         9        H      tau(   9) = (   0.2273033   0.1012540   0.4517679  )
        10        H      tau(  10) = (  -0.0077772  -0.2487142   0.4517679  )
        11        H      tau(  11) = (   0.3186955   0.7115836   0.3783414  )
        12        H      tau(  12) = (  -0.1965246   0.3859474   0.6978820  )
        13        H      tau(  13) = (   0.5074430   0.0769219   0.1322273  )
        14        H      tau(  14) = (  -0.4316051   0.0359792   0.6978820  )
        15        H      tau(  15) = (   0.7425234   0.4268902   0.1322273  )
        16        H      tau(  16) = (   0.1965245  -0.3859476   0.6978820  )
        17        H      tau(  17) = (  -0.1206866   0.4988488   0.1322273  )
        18        H      tau(  18) = (   0.3031413   0.2141553   0.3783414  )
        19        H      tau(  19) = (   0.0077771   0.2487141   0.4517679  )
        20        H      tau(  20) = (  -0.2273034  -0.1012542   0.4517679  )
        21        H      tau(  21) = (   0.2092045   0.5311927   0.0000000  )
        22        H      tau(  22) = (   0.4126324   0.3945463   0.0000000  )
        23        H      tau(  23) = (  -0.0000001  -0.0000001   0.7075785  )
        24        H      tau(  24) = (   0.3109184   0.4628695   0.1225308  )
        25        H      tau(  25) = (   0.2215666  -0.1488307   0.3760320  )
        26        H      tau(  26) = (   0.0893518   0.6117000   0.4540772  )
        27        H      tau(  27) = (  -0.3769339   0.2531937   0.5631968  )
        28        H      tau(  28) = (   0.6878522   0.2096757   0.2669125  )
        29        H      tau(  29) = (  -0.2215666   0.1488305   0.3760320  )
        30        H      tau(  30) = (  -0.0660154   0.7160632   0.2669125  )
        31        H      tau(  31) = (   0.1121090   0.7945726   0.1624469  )
        32        H      tau(  32) = (   0.4896740  -0.0778133   0.1942901  )
        33        H      tau(  33) = (   0.4148455  -0.0211406   0.6399180  )
        34        H      tau(  34) = (   0.3992774  -0.0764526   0.6635636  )
        35        H      tau(  35) = (   0.4800361   0.3207201   0.4867173  )
        36        H      tau(  36) = (   0.4983084   0.3655456   0.4477597  )
        37        H      tau(  37) = (   0.3839784  -0.2911586   0.6118789  )
        38        H      tau(  38) = (   0.3917397  -0.2299066   0.6188689  )
        39        H      tau(  39) = (   0.0724818   0.1080024   0.4789719  )
        40        H      tau(  40) = (   0.0822172   0.3548501   0.3831412  )
        41        H      tau(  41) = (   0.3891860   0.5766672   0.3541815  )
        42        H      tau(  42) = (   0.5494803   0.5654299   0.3969331  )
        43        C      tau(  43) = (   0.5510999   0.3015349   0.2893371  )
        44        C      tau(  44) = (  -0.2401815   0.1613345   0.5407722  )
        45        C      tau(  45) = (   0.2401814  -0.1613346   0.5407722  )
        46        C      tau(  46) = (   0.0707370   0.6242040   0.2893371  )
        47        C      tau(  47) = (   0.6049578   0.2653575   0.3542176  )
        48        C      tau(  48) = (  -0.2940394   0.1975119   0.4758917  )
        49        C      tau(  49) = (   0.2940393  -0.1975120   0.4758917  )
        50        C      tau(  50) = (   0.0168790   0.6603814   0.3542176  )
        51        C      tau(  51) = (   0.5864332   0.2778008   0.4376842  )
        52        C      tau(  52) = (  -0.2755148   0.1850686   0.3924250  )
        53        C      tau(  53) = (   0.3633258  -0.2440531   0.4982075  )
        54        C      tau(  54) = (  -0.0524074   0.7069225   0.3319018  )
        55        C      tau(  55) = (   0.0354036   0.6479381   0.4376842  )
        56        C      tau(  56) = (   0.2755148  -0.1850687   0.3924250  )
        57        C      tau(  57) = (   0.6742442   0.2188164   0.3319018  )
        58        C      tau(  58) = (  -0.3633259   0.2440530   0.4982075  )
        59        C      tau(  59) = (   0.1977491   0.2943923   0.3743511  )
        60        C      tau(  60) = (   0.1131693   0.1684770   0.4557582  )
        61        C      tau(  61) = (   0.4240877   0.6313465   0.3743511  )
        62        C      tau(  62) = (  -0.1131694  -0.1684772   0.4557582  )
        63        C      tau(  63) = (   0.5085015   0.0856540   0.0000000  )
        64        C      tau(  64) = (   0.1133354   0.8400850   0.0000000  )
        65        C      tau(  65) = (   0.7348401   0.4226082   0.0000000  )
        66        C      tau(  66) = (  -0.1130032   0.5031308   0.0000000  )
        67        C      tau(  67) = (   0.2425630   0.3611076   0.3297094  )
        68        C      tau(  68) = (  -0.0683555  -0.1017619   0.5003998  )
        69        C      tau(  69) = (   0.5162580   0.1772614   0.0000000  )
        70        C      tau(  70) = (   0.1055789   0.7484776   0.0000000  )
        71        C      tau(  71) = (   0.6529688   0.3807851   0.0000000  )
        72        C      tau(  72) = (  -0.0311319   0.5449538   0.0000000  )
        73        C      tau(  73) = (   0.1144289   0.3044172   0.3948166  )
        74        C      tau(  74) = (   0.1964894   0.1584522   0.4352927  )
        75        C      tau(  75) = (   0.3832988   0.7046882   0.3948166  )
        76        C      tau(  76) = (  -0.0723804  -0.2418188   0.4352927  )
        77        C      tau(  77) = (   0.5042245   0.0425840   0.0747547  )
        78        C      tau(  78) = (  -0.1933061   0.4202854   0.7553546  )
        79        C      tau(  79) = (   0.7730943   0.4428550   0.0747547  )
        80        C      tau(  80) = (  -0.4621760   0.0200144   0.7553546  )
        81        C      tau(  81) = (   0.5074079   0.6213217   0.3948166  )
        82        C      tau(  82) = (  -0.1964895  -0.1584523   0.4352927  )
        83        C      tau(  83) = (   0.2385380   0.2210507   0.3948166  )
        84        C      tau(  84) = (   0.0723803   0.2418187   0.4352927  )
        85        C      tau(  85) = (   0.4621758  -0.0200146   0.7553546  )
        86        C      tau(  86) = (  -0.1512575   0.4828840   0.0747547  )
        87        C      tau(  87) = (   0.1933060  -0.4202856   0.7553546  )
        88        C      tau(  88) = (   0.1176124   0.8831550   0.0747547  )
        89        N      tau(  89) = (   0.1143939   0.8488170   0.1322273  )
        90        N      tau(  90) = (   0.4316049  -0.0359794   0.6978820  )
        91        N      tau(  91) = (   0.5324850   0.3140388   0.4540772  )
        92        N      tau(  92) = (   0.3769338  -0.2531939   0.5631968  )
        93        O      tau(  93) = (   0.4885547   0.3435477   0.3121369  )
        94        O      tau(  94) = (  -0.1776363   0.1193217   0.5179724  )
        95        O      tau(  95) = (   0.2591077  -0.1740478   0.6161179  )
        96        O      tau(  96) = (   0.0518107   0.6369172   0.2139914  )
        97        O      tau(  97) = (   0.1332821   0.5821912   0.3121369  )
        98        O      tau(  98) = (   0.1776362  -0.1193218   0.5179724  )
        99        O      tau(  99) = (   0.5700262   0.2888217   0.2139914  )
       100        O      tau( 100) = (  -0.2591078   0.1740476   0.6161179  )
       101        O      tau( 101) = (   0.4060787   0.3080567   0.1653171  )
       102        O      tau( 102) = (  -0.0951604   0.1548126   0.6647922  )
       103        O      tau( 103) = (   0.4902207   0.4333203   0.1653171  )
       104        O      tau( 104) = (  -0.1793023   0.0295490   0.6647922  )
       105        O      tau( 105) = (   0.0951602  -0.1548128   0.6647922  )
       106        O      tau( 106) = (   0.2157581   0.6176822   0.1653171  )
       107        O      tau( 107) = (   0.1793022  -0.0295492   0.6647922  )
       108        O      tau( 108) = (   0.1316161   0.4924186   0.1653171  )
       109        O      tau( 109) = (   0.3179808   0.3491619   0.3116761  )
       110        O      tau( 110) = (  -0.1079343  -0.0364622   0.5184331  )
       111        O      tau( 111) = (   0.2082893  -0.2488758   0.7608433  )
       112        O      tau( 112) = (   0.1026291   0.7117452   0.0692660  )
       113        O      tau( 113) = (   0.3091612  -0.0987061   0.7608433  )
       114        O      tau( 114) = (   0.0017572   0.5615755   0.0692660  )
       115        O      tau( 115) = (   0.0070623  -0.1137077   0.5184331  )
       116        O      tau( 116) = (   0.2029841   0.4264074   0.3116761  )
       117        O      tau( 117) = (   0.6200797   0.3641635   0.0692660  )
       118        O      tau( 118) = (  -0.3091613   0.0987059   0.7608433  )
       119        O      tau( 119) = (   0.5192078   0.2139938   0.0692660  )
       120        O      tau( 120) = (  -0.2082895   0.2488756   0.7608433  )
       121        O      tau( 121) = (   0.3109184   0.4628695   0.1822007  )
       122        O      tau( 122) = (  -0.0000001  -0.0000001   0.6479086  )
       123        O      tau( 123) = (   0.4621650   0.3612743   0.0000000  )
       124        O      tau( 124) = (   0.1596719   0.5644647   0.0000000  )

     --------------------------------------------
     DFT-D3 Dispersion Correction (3-body terms):
     --------------------------------------------
       Reference C6 values for interpolation: 

         atom   Coordination number   C6
         H          0.912             6.05
         H          0.000            15.18
         C          0.000            98.23
         C          0.987            86.49
         C          1.998            58.72
         C          2.999            51.56
         C          3.984            36.41
         N          0.000            50.54
         N          0.994            44.25
         N          2.014            39.35
         N          2.990            31.16
         O          0.000            31.01
         O          0.993            25.63
         O          1.989            20.74
         Ti         0.000          2723.84
         Ti         1.830           604.00
         Ti         3.868           643.18

       Values used:

         atom   Coordination number  R0_AB[au]  C6      C8
         Ti         7.248            3.557    643.18  76289.64
         Ti         7.248            3.557    643.18  76289.64
         Ti         6.222            3.557    643.18  76289.64
         Ti         6.221            3.557    643.18  76289.64
         Ti         7.252            3.557    643.18  76289.64
         Ti         7.253            3.557    643.18  76289.64
         Ti         6.221            3.557    643.18  76289.64
         Ti         6.223            3.557    643.18  76289.64
         H          1.003            2.062      6.18     74.68
         H          1.004            2.062      6.18     74.67
         H          1.003            2.062      6.18     74.68
         H          1.004            2.062      6.18     74.67
         H          1.005            2.062      6.18     74.67
         H          1.005            2.062      6.18     74.67
         H          1.004            2.062      6.18     74.67
         H          1.004            2.062      6.18     74.67
         H          1.004            2.062      6.18     74.67
         H          1.004            2.062      6.18     74.67
         H          1.003            2.062      6.18     74.68
         H          1.004            2.062      6.18     74.67
         H          1.062            2.062      6.14     74.16
         H          1.062            2.062      6.14     74.16
         H          1.062            2.062      6.14     74.17
         H          1.062            2.062      6.14     74.17
         H          1.004            2.062      6.18     74.67
         H          1.005            2.062      6.18     74.67
         H          1.005            2.062      6.18     74.67
         H          1.004            2.062      6.18     74.67
         H          1.004            2.062      6.18     74.67
         H          1.004            2.062      6.18     74.67
         H          1.089            2.062      6.12     73.98
         H          1.085            2.062      6.12     74.01
         H          1.085            2.062      6.12     74.01
         H          1.087            2.062      6.12     74.00
         H          1.085            2.062      6.12     74.01
         H          1.086            2.062      6.12     74.00
         H          1.085            2.062      6.12     74.01
         H          1.086            2.062      6.12     74.01
         H          0.923            2.062      6.27     75.85
         H          1.015            2.062      6.17     74.56
         H          1.003            2.062      6.18     74.69
         H          0.995            2.062      6.19     74.77
         C          3.354            2.750     47.40   1370.89
         C          3.343            2.750     47.66   1378.38
         C          3.354            2.750     47.40   1370.79
         C          3.343            2.750     47.65   1378.26
         C          3.358            2.750     47.31   1368.39
         C          3.188            2.750     50.19   1451.46
         C          3.358            2.750     47.31   1368.34
         C          3.188            2.750     50.18   1451.43
         C          3.189            2.750     50.18   1451.16
         C          3.165            2.750     50.41   1457.83
         C          3.189            2.750     50.17   1451.12
         C          3.165            2.750     50.40   1457.79
         C          3.329            2.750     47.97   1387.28
         C          3.166            2.750     50.40   1457.65
         C          3.166            2.750     50.40   1457.65
         C          3.329            2.750     47.97   1387.27
         C          3.187            2.750     50.19   1451.60
         C          3.053            2.750     51.13   1478.79
         C          3.127            2.750     50.71   1466.50
         C          3.187            2.750     50.20   1451.81
         C          3.188            2.750     50.18   1451.42
         C          3.360            2.750     47.26   1366.92
         C          3.360            2.750     47.26   1366.93
         C          3.188            2.750     50.18   1451.42
         C          3.211            2.750     49.93   1444.20
         C          3.211            2.750     49.93   1444.19
         C          3.212            2.750     49.92   1443.78
         C          3.223            2.750     49.78   1439.82
         C          3.223            2.750     49.78   1439.84
         C          3.212            2.750     49.92   1443.80
         C          3.170            2.750     50.36   1456.45
         C          3.126            2.750     50.72   1466.84
         C          3.127            2.750     50.71   1466.56
         C          3.169            2.750     50.37   1456.87
         C          3.328            2.750     47.99   1387.89
         C          3.166            2.750     50.40   1457.63
         C          3.166            2.750     50.40   1457.63
         C          3.328            2.750     47.99   1387.91
         C          3.118            2.750     50.77   1468.39
         C          3.164            2.750     50.41   1458.05
         C          3.164            2.750     50.41   1458.04
         C          3.130            2.750     50.69   1465.98
         C          3.189            2.750     50.17   1451.12
         C          3.165            2.750     50.41   1457.81
         C          3.165            2.750     50.40   1457.79
         C          3.189            2.750     50.17   1451.14
         N          3.369            2.478     31.17    687.68
         N          3.370            2.478     31.17    687.68
         N          3.367            2.478     31.17    687.69
         N          3.368            2.478     31.17    687.69
         O          2.052            2.345     20.79    419.61
         O          2.039            2.345     20.80    419.72
         O          2.054            2.345     20.79    419.59
         O          2.041            2.345     20.80    419.70
         O          2.039            2.345     20.80    419.72
         O          2.039            2.345     20.80    419.71
         O          2.041            2.345     20.80    419.70
         O          2.041            2.345     20.80    419.70
         O          2.010            2.345     20.81    420.01
         O          2.008            2.345     20.81    420.03
         O          2.008            2.345     20.81    420.03
         O          2.010            2.345     20.81    420.01
         O          2.010            2.345     20.81    420.01
         O          2.008            2.345     20.81    420.03
         O          2.008            2.345     20.81    420.03
         O          2.010            2.345     20.81    420.01
         O          2.017            2.345     20.81    419.94
         O          2.017            2.345     20.81    419.94
         O          2.018            2.345     20.81    419.92
         O          2.033            2.345     20.80    419.78
         O          2.032            2.345     20.80    419.79
         O          2.018            2.345     20.81    419.92
         O          2.017            2.345     20.81    419.94
         O          2.017            2.345     20.81    419.94
         O          2.018            2.345     20.81    419.92
         O          2.018            2.345     20.81    419.92
         O          2.018            2.345     20.81    419.92
         O          2.018            2.345     20.81    419.92
         O          2.935            2.345     20.74    418.58
         O          2.935            2.345     20.74    418.58
         O          2.940            2.345     20.74    418.58
         O          2.940            2.345     20.74    418.58

         Molecular C6 ( Ry / a.u.^6 ) =    590943.23


   Crystallographic axes

     site n.     atom                  positions (cryst. coord.)
         1        Ti     tau(   1) = (  0.2898400  0.5718700  0.8617100  )
         2        Ti     tau(   2) = (  0.7101600  0.4281300  0.1382900  )
         3        Ti     tau(   3) = (  0.4281300  0.2898400  0.7179700  )
         4        Ti     tau(   4) = (  0.5718700  0.7101600  0.2820300  )
         5        Ti     tau(   5) = (  0.4281300  0.7101600  0.1382900  )
         6        Ti     tau(   6) = (  0.5718700  0.2898400  0.8617100  )
         7        Ti     tau(   7) = (  0.2898400  0.4281300  0.7179700  )
         8        Ti     tau(   8) = (  0.7101600  0.5718700  0.2820300  )
         9        H      tau(   9) = (  0.5407790  0.3814900  0.5442270  )
        10        H      tau(  10) = (  0.1627370  0.0034480  0.5442270  )
        11        H      tau(  11) = (  0.8372630  0.9965520  0.4557730  )
        12        H      tau(  12) = (  0.3814900  0.8372630  0.8407110  )
        13        H      tau(  13) = (  0.6185100  0.1627370  0.1592890  )
        14        H      tau(  14) = (  0.0034480  0.4592210  0.8407110  )
        15        H      tau(  15) = (  0.9965520  0.5407790  0.1592890  )
        16        H      tau(  16) = (  0.4592210  0.0034480  0.8407110  )
        17        H      tau(  17) = (  0.1627370  0.6185100  0.1592890  )
        18        H      tau(  18) = (  0.6185100  0.4592210  0.4557730  )
        19        H      tau(  19) = (  0.3814900  0.5407790  0.5442270  )
        20        H      tau(  20) = (  0.0034480  0.1627370  0.5442270  )
        21        H      tau(  21) = (  0.4261960  0.5738040  0.0000000  )
        22        H      tau(  22) = (  0.5738040  0.4261960  0.0000000  )
        23        H      tau(  23) = (  0.4261960  0.4261960  0.8523920  )
        24        H      tau(  24) = (  0.5738040  0.5738040  0.1476080  )
        25        H      tau(  25) = (  0.3872650  0.0657260  0.4529910  )
        26        H      tau(  26) = (  0.6127350  0.9342740  0.5470090  )
        27        H      tau(  27) = (  0.0657260  0.6127350  0.6784610  )
        28        H      tau(  28) = (  0.9342740  0.3872650  0.3215390  )
        29        H      tau(  29) = (  0.0657260  0.3872650  0.4529910  )
        30        H      tau(  30) = (  0.3872650  0.9342740  0.3215390  )
        31        H      tau(  31) = (  0.5345376  0.9561584  0.1956934  )
        32        H      tau(  32) = (  0.5749142  0.0329715  0.2340536  )
        33        H      tau(  33) = (  0.7916517  0.3626057  0.7708840  )
        34        H      tau(  34) = (  0.7677312  0.3170991  0.7993690  )
        35        H      tau(  35) = (  0.9042145  0.6396123  0.5863292  )
        36        H      tau(  36) = (  0.9173326  0.6645683  0.5393985  )
        37        H      tau(  37) = (  0.6335939  0.0540386  0.7371065  )
        38        H      tau(  38) = (  0.6705867  0.1244143  0.7455270  )
        39        H      tau(  39) = (  0.4051000  0.4051655  0.5769986  )
        40        H      tau(  40) = (  0.4579507  0.6140932  0.4615552  )
        41        H      tau(  41) = (  0.8380881  0.8362607  0.4266685  )
        42        H      tau(  42) = (  1.0195426  0.8498725  0.4781697  )
        43        C      tau(  43) = (  0.8485530  0.5000000  0.3485530  )
        44        C      tau(  44) = (  0.1514470  0.5000000  0.6514470  )
        45        C      tau(  45) = (  0.5000000  0.1514470  0.6514470  )
        46        C      tau(  46) = (  0.5000000  0.8485530  0.3485530  )
        47        C      tau(  47) = (  0.9267120  0.5000000  0.4267120  )
        48        C      tau(  48) = (  0.0732880  0.5000000  0.5732880  )
        49        C      tau(  49) = (  0.5000000  0.0732880  0.5732880  )
        50        C      tau(  50) = (  0.5000000  0.9267120  0.4267120  )
        51        C      tau(  51) = (  0.9635450  0.5637160  0.5272610  )
        52        C      tau(  52) = (  0.0364550  0.4362840  0.4727390  )
        53        C      tau(  53) = (  0.5637160  0.0364550  0.6001710  )
        54        C      tau(  54) = (  0.4362840  0.9635450  0.3998290  )
        55        C      tau(  55) = (  0.5637160  0.9635450  0.5272610  )
        56        C      tau(  56) = (  0.4362840  0.0364550  0.4727390  )
        57        C      tau(  57) = (  0.9635450  0.4362840  0.3998290  )
        58        C      tau(  58) = (  0.0364550  0.5637160  0.6001710  )
        59        C      tau(  59) = (  0.5434910  0.5434910  0.4509660  )
        60        C      tau(  60) = (  0.4565090  0.4565090  0.5490340  )
        61        C      tau(  61) = (  0.9074750  0.9074750  0.4509660  )
        62        C      tau(  62) = (  0.0925250  0.0925250  0.5490340  )
        63        C      tau(  63) = (  0.5434910  0.0925250  0.0000000  )
        64        C      tau(  64) = (  0.4565090  0.9074750  0.0000000  )
        65        C      tau(  65) = (  0.9074750  0.4565090  0.0000000  )
        66        C      tau(  66) = (  0.0925250  0.5434910  0.0000000  )
        67        C      tau(  67) = (  0.5886690  0.5886690  0.3971880  )
        68        C      tau(  68) = (  0.1914810  0.1914810  0.6028120  )
        69        C      tau(  69) = (  0.5886690  0.1914810  0.0000000  )
        70        C      tau(  70) = (  0.4113310  0.8085190  0.0000000  )
        71        C      tau(  71) = (  0.8085190  0.4113310  0.0000000  )
        72        C      tau(  72) = (  0.1914810  0.5886690  0.0000000  )
        73        C      tau(  73) = (  0.4765930  0.5666470  0.4756200  )
        74        C      tau(  74) = (  0.5234070  0.4333530  0.5243800  )
        75        C      tau(  75) = (  0.9089730  0.9990270  0.4756200  )
        76        C      tau(  76) = (  0.0910270  0.0009730  0.5243800  )
        77        C      tau(  77) = (  0.5666470  0.0910270  0.0900540  )
        78        C      tau(  78) = (  0.4333530  0.9089730  0.9099460  )
        79        C      tau(  79) = (  0.9990270  0.5234070  0.0900540  )
        80        C      tau(  80) = (  0.0009730  0.4765930  0.9099460  )
        81        C      tau(  81) = (  0.9990270  0.9089730  0.4756200  )
        82        C      tau(  82) = (  0.0009730  0.0910270  0.5243800  )
        83        C      tau(  83) = (  0.5666470  0.4765930  0.4756200  )
        84        C      tau(  84) = (  0.4333530  0.5234070  0.5243800  )
        85        C      tau(  85) = (  0.9089730  0.4333530  0.9099460  )
        86        C      tau(  86) = (  0.0910270  0.5666470  0.0900540  )
        87        C      tau(  87) = (  0.4765930  0.0009730  0.9099460  )
        88        C      tau(  88) = (  0.5234070  0.9990270  0.0900540  )
        89        N      tau(  89) = (  0.5407790  0.9965520  0.1592890  )
        90        N      tau(  90) = (  0.8372630  0.3814900  0.8407110  )
        91        N      tau(  91) = (  0.9342740  0.6127350  0.5470090  )
        92        N      tau(  92) = (  0.6127350  0.0657260  0.6784610  )
        93        O      tau(  93) = (  0.8169030  0.5591160  0.3760190  )
        94        O      tau(  94) = (  0.1830970  0.4408840  0.6239810  )
        95        O      tau(  95) = (  0.5591160  0.1830970  0.7422130  )
        96        O      tau(  96) = (  0.4408840  0.8169030  0.2577870  )
        97        O      tau(  97) = (  0.5591160  0.8169030  0.3760190  )
        98        O      tau(  98) = (  0.4408840  0.1830970  0.6239810  )
        99        O      tau(  99) = (  0.8169030  0.4408840  0.2577870  )
       100        O      tau( 100) = (  0.1830970  0.5591160  0.7422130  )
       101        O      tau( 101) = (  0.6314950  0.4323440  0.1991510  )
       102        O      tau( 102) = (  0.3685050  0.5676560  0.8008490  )
       103        O      tau( 103) = (  0.7668070  0.5676560  0.1991510  )
       104        O      tau( 104) = (  0.2331930  0.4323440  0.8008490  )
       105        O      tau( 105) = (  0.4323440  0.2331930  0.8008490  )
       106        O      tau( 106) = (  0.5676560  0.7668070  0.1991510  )
       107        O      tau( 107) = (  0.5676560  0.3685050  0.8008490  )
       108        O      tau( 108) = (  0.4323440  0.6314950  0.1991510  )
       109        O      tau( 109) = (  0.6483450  0.5649030  0.3754640  )
       110        O      tau( 110) = (  0.1894390  0.2728810  0.6245360  )
       111        O      tau( 111) = (  0.5649030  0.1894390  0.9165580  )
       112        O      tau( 112) = (  0.4350970  0.8105610  0.0834420  )
       113        O      tau( 113) = (  0.7271190  0.3516550  0.9165580  )
       114        O      tau( 114) = (  0.2728810  0.6483450  0.0834420  )
       115        O      tau( 115) = (  0.2728810  0.1894390  0.6245360  )
       116        O      tau( 116) = (  0.5649030  0.6483450  0.3754640  )
       117        O      tau( 117) = (  0.8105610  0.4350970  0.0834420  )
       118        O      tau( 118) = (  0.1894390  0.5649030  0.9165580  )
       119        O      tau( 119) = (  0.6483450  0.2728810  0.0834420  )
       120        O      tau( 120) = (  0.3516550  0.7271190  0.9165580  )
       121        O      tau( 121) = (  0.6097450  0.6097450  0.2194900  )
       122        O      tau( 122) = (  0.3902550  0.3902550  0.7805100  )
       123        O      tau( 123) = (  0.6097450  0.3902550  0.0000000  )
       124        O      tau( 124) = (  0.3902550  0.6097450  0.0000000  )

     number of k points=     1
                       cart. coord. in units 2pi/alat
        k(    1) = (   0.0000000   0.0000000   0.0000000), wk =   2.0000000

                       cryst. coord.
        k(    1) = (   0.0000000   0.0000000   0.0000000), wk =   2.0000000

     Dense  grid:  1762151 G-vectors     FFT dimensions: ( 180, 180, 180)

     Smooth grid:   761105 G-vectors     FFT dimensions: ( 125, 125, 125)

     Dynamical RAM for                 wfc:      12.32 MB

     Dynamical RAM for     wfc (w. buffer):      12.32 MB

     Dynamical RAM for           str. fact:       4.34 MB

     Dynamical RAM for           local pot:       0.00 MB

     Dynamical RAM for          nlocal pot:      40.65 MB

     Dynamical RAM for                qrad:      13.43 MB

     Dynamical RAM for          rho,v,vnew:       7.05 MB

     Dynamical RAM for               rhoin:       2.35 MB

     Dynamical RAM for            rho*nmix:      13.88 MB

     Dynamical RAM for           G-vectors:       3.44 MB

     Dynamical RAM for          h,s,v(r/c):       1.40 MB

     Dynamical RAM for          <psi|beta>:       3.48 MB

     Dynamical RAM for                 psi:      24.63 MB

     Dynamical RAM for                hpsi:      24.63 MB

     Dynamical RAM for                spsi:      24.63 MB

     Dynamical RAM for      wfcinit/wfcrot:      45.87 MB

     Dynamical RAM for           addusdens:     201.24 MB

     Dynamical RAM for          addusforce:     279.92 MB

     Dynamical RAM for         addusstress:     174.35 MB

     Estimated static dynamical RAM per process >      96.20 MB

     Estimated max dynamical RAM per process >     389.99 MB

     Estimated total dynamical RAM >      11.81 GB

     Check: negative core charge=   -0.000003

     Initial potential from superposition of free atoms

     starting charge     517.9973, renormalised to     526.0000

     negative rho (up, down):  9.834E-03 0.000E+00
     Starting wfcs are  442 randomized atomic wfcs
[ga01:3952045] 30 more processes have sent help message help-mpi-btl-openib.txt / error in device init
[ga01:3952045] Set MCA parameter "orte_base_help_aggregate" to 0 to see all help / error messages
     Checking if some PAW data can be deallocated... 
       PAW data deallocated on   19 nodes for type:  3
       PAW data deallocated on   23 nodes for type:  5

     total cpu time spent up to now is        6.9 secs

     Self-consistent Calculation

     iteration #  1     ecut=    40.00 Ry     beta= 0.20
     Davidson diagonalization with overlap

---- Real-time Memory Report at c_bands before calling an iterative solver
           389 MiB given to the printing process from OS
             0 MiB allocation reported by mallinfo(arena+hblkhd)
        174616 MiB available memory on the node where the printing process lives
------------------
     ethr =  1.00E-02,  avg # of iterations =  2.0

     negative rho (up, down):  5.360E-03 0.000E+00

     total cpu time spent up to now is       19.2 secs

     total energy              =   -3197.21388154 Ry
     estimated scf accuracy    <     207.92896604 Ry

     iteration #  2     ecut=    40.00 Ry     beta= 0.20
     Davidson diagonalization with overlap

---- Real-time Memory Report at c_bands before calling an iterative solver
           469 MiB given to the printing process from OS
             0 MiB allocation reported by mallinfo(arena+hblkhd)
        175748 MiB available memory on the node where the printing process lives
------------------
     ethr =  1.00E-02,  avg # of iterations = 12.0

     negative rho (up, down):  5.706E-03 0.000E+00

     total cpu time spent up to now is       39.7 secs

     total energy              =   -3226.01105155 Ry
     estimated scf accuracy    <     400.35320189 Ry

     iteration #  3     ecut=    40.00 Ry     beta= 0.20
     Davidson diagonalization with overlap

---- Real-time Memory Report at c_bands before calling an iterative solver
           471 MiB given to the printing process from OS
             0 MiB allocation reported by mallinfo(arena+hblkhd)
        175700 MiB available memory on the node where the printing process lives
------------------
     ethr =  1.00E-02,  avg # of iterations =  9.0

     negative rho (up, down):  6.385E-03 0.000E+00

     total cpu time spent up to now is       54.8 secs

     total energy              =   -3260.43053011 Ry
     estimated scf accuracy    <      26.56164869 Ry

     iteration #  4     ecut=    40.00 Ry     beta= 0.20
     Davidson diagonalization with overlap

---- Real-time Memory Report at c_bands before calling an iterative solver
           473 MiB given to the printing process from OS
             0 MiB allocation reported by mallinfo(arena+hblkhd)
        175673 MiB available memory on the node where the printing process lives
------------------
     ethr =  5.05E-03,  avg # of iterations =  6.0

     negative rho (up, down):  7.186E-03 0.000E+00

     total cpu time spent up to now is       64.0 secs

     total energy              =   -3258.04962011 Ry
     estimated scf accuracy    <      16.39331384 Ry

     iteration #  5     ecut=    40.00 Ry     beta= 0.20
     Davidson diagonalization with overlap

---- Real-time Memory Report at c_bands before calling an iterative solver
           474 MiB given to the printing process from OS
             0 MiB allocation reported by mallinfo(arena+hblkhd)
        175629 MiB available memory on the node where the printing process lives
------------------
     ethr =  3.12E-03,  avg # of iterations = 12.0

     negative rho (up, down):  8.348E-03 0.000E+00

     total cpu time spent up to now is       74.3 secs

     total energy              =   -3256.61411683 Ry
     estimated scf accuracy    <       7.58629190 Ry

     iteration #  6     ecut=    40.00 Ry     beta= 0.20
     Davidson diagonalization with overlap

---- Real-time Memory Report at c_bands before calling an iterative solver
           479 MiB given to the printing process from OS
             0 MiB allocation reported by mallinfo(arena+hblkhd)
        175588 MiB available memory on the node where the printing process lives
------------------
     ethr =  1.44E-03,  avg # of iterations = 14.0

     negative rho (up, down):  9.214E-03 0.000E+00

     total cpu time spent up to now is       86.1 secs

     total energy              =   -3257.29188714 Ry
     estimated scf accuracy    <       2.95821044 Ry

     iteration #  7     ecut=    40.00 Ry     beta= 0.20
     Davidson diagonalization with overlap

---- Real-time Memory Report at c_bands before calling an iterative solver
           480 MiB given to the printing process from OS
             0 MiB allocation reported by mallinfo(arena+hblkhd)
        175548 MiB available memory on the node where the printing process lives
------------------
     ethr =  5.62E-04,  avg # of iterations = 15.0

     negative rho (up, down):  9.523E-03 0.000E+00

     total cpu time spent up to now is       98.1 secs

     total energy              =   -3257.59361197 Ry
     estimated scf accuracy    <       3.58912235 Ry

     iteration #  8     ecut=    40.00 Ry     beta= 0.20
     Davidson diagonalization with overlap

---- Real-time Memory Report at c_bands before calling an iterative solver
           482 MiB given to the printing process from OS
             0 MiB allocation reported by mallinfo(arena+hblkhd)
        175505 MiB available memory on the node where the printing process lives
------------------
     ethr =  5.62E-04,  avg # of iterations = 20.0

     negative rho (up, down):  9.546E-03 0.000E+00

     total cpu time spent up to now is      108.5 secs

     total energy              =   -3257.45911415 Ry
     estimated scf accuracy    <       3.86056426 Ry

     iteration #  9     ecut=    40.00 Ry     beta= 0.20
     Davidson diagonalization with overlap

---- Real-time Memory Report at c_bands before calling an iterative solver
           482 MiB given to the printing process from OS
             0 MiB allocation reported by mallinfo(arena+hblkhd)
        175474 MiB available memory on the node where the printing process lives
------------------
     ethr =  5.62E-04,  avg # of iterations = 19.0

     negative rho (up, down):  9.175E-03 0.000E+00

     total cpu time spent up to now is      119.1 secs

     total energy              =   -3257.14794651 Ry
     estimated scf accuracy    <       2.55202971 Ry

     iteration # 10     ecut=    40.00 Ry     beta= 0.20
     Davidson diagonalization with overlap

---- Real-time Memory Report at c_bands before calling an iterative solver
           484 MiB given to the printing process from OS
             0 MiB allocation reported by mallinfo(arena+hblkhd)
        175427 MiB available memory on the node where the printing process lives
------------------
     ethr =  4.85E-04,  avg # of iterations =  8.0

     negative rho (up, down):  8.560E-03 0.000E+00

     total cpu time spent up to now is      129.0 secs

     total energy              =   -3257.05185109 Ry
     estimated scf accuracy    <       1.38713605 Ry

     iteration # 11     ecut=    40.00 Ry     beta= 0.20
     Davidson diagonalization with overlap

---- Real-time Memory Report at c_bands before calling an iterative solver
           484 MiB given to the printing process from OS
             0 MiB allocation reported by mallinfo(arena+hblkhd)
        175424 MiB available memory on the node where the printing process lives
------------------
     ethr =  2.64E-04,  avg # of iterations = 12.0

     negative rho (up, down):  8.808E-03 0.000E+00

     total cpu time spent up to now is      141.9 secs

     total energy              =   -3257.43442822 Ry
     estimated scf accuracy    <       2.18075114 Ry

     iteration # 12     ecut=    40.00 Ry     beta= 0.20
     Davidson diagonalization with overlap

---- Real-time Memory Report at c_bands before calling an iterative solver
           484 MiB given to the printing process from OS
             0 MiB allocation reported by mallinfo(arena+hblkhd)
        175422 MiB available memory on the node where the printing process lives
------------------
     ethr =  2.64E-04,  avg # of iterations =  6.0

     negative rho (up, down):  9.647E-03 0.000E+00

     total cpu time spent up to now is      151.5 secs

     total energy              =   -3257.02626122 Ry
     estimated scf accuracy    <       1.67788364 Ry

     iteration # 13     ecut=    40.00 Ry     beta= 0.20
     Davidson diagonalization with overlap

---- Real-time Memory Report at c_bands before calling an iterative solver
           484 MiB given to the printing process from OS
             0 MiB allocation reported by mallinfo(arena+hblkhd)
        175427 MiB available memory on the node where the printing process lives
------------------
     c_bands:  1 eigenvalues not converged
     ethr =  2.64E-04,  avg # of iterations = 20.0

     negative rho (up, down):  9.936E-03 0.000E+00

     total cpu time spent up to now is      163.1 secs

     total energy              =   -3257.26687682 Ry
     estimated scf accuracy    <       0.75131212 Ry

     iteration # 14     ecut=    40.00 Ry     beta= 0.20
     Davidson diagonalization with overlap

---- Real-time Memory Report at c_bands before calling an iterative solver
           484 MiB given to the printing process from OS
             0 MiB allocation reported by mallinfo(arena+hblkhd)
        175423 MiB available memory on the node where the printing process lives
------------------
     c_bands:  1 eigenvalues not converged
     ethr =  1.43E-04,  avg # of iterations = 20.0

     negative rho (up, down):  9.796E-03 0.000E+00

     total cpu time spent up to now is      173.8 secs

     total energy              =   -3257.24845275 Ry
     estimated scf accuracy    <       0.65978964 Ry

     iteration # 15     ecut=    40.00 Ry     beta= 0.20
     Davidson diagonalization with overlap

---- Real-time Memory Report at c_bands before calling an iterative solver
           484 MiB given to the printing process from OS
             0 MiB allocation reported by mallinfo(arena+hblkhd)
        175423 MiB available memory on the node where the printing process lives
------------------
     c_bands:  1 eigenvalues not converged
     ethr =  1.25E-04,  avg # of iterations = 20.0

     negative rho (up, down):  9.757E-03 0.000E+00

     total cpu time spent up to now is      184.4 secs

     total energy              =   -3257.23376442 Ry
     estimated scf accuracy    <       0.90586552 Ry

     iteration # 16     ecut=    40.00 Ry     beta= 0.20
     Davidson diagonalization with overlap

---- Real-time Memory Report at c_bands before calling an iterative solver
           484 MiB given to the printing process from OS
             0 MiB allocation reported by mallinfo(arena+hblkhd)
        175421 MiB available memory on the node where the printing process lives
------------------
     ethr =  1.25E-04,  avg # of iterations = 19.0

     negative rho (up, down):  9.869E-03 0.000E+00

     total cpu time spent up to now is      194.9 secs

     total energy              =   -3257.24676422 Ry
     estimated scf accuracy    <       0.18874723 Ry

     iteration # 17     ecut=    40.00 Ry     beta= 0.20
     Davidson diagonalization with overlap

---- Real-time Memory Report at c_bands before calling an iterative solver
           484 MiB given to the printing process from OS
             0 MiB allocation reported by mallinfo(arena+hblkhd)
        175420 MiB available memory on the node where the printing process lives
------------------
     c_bands:  1 eigenvalues not converged
     ethr =  3.59E-05,  avg # of iterations = 20.0

     negative rho (up, down):  9.939E-03 0.000E+00

     total cpu time spent up to now is      205.4 secs

     total energy              =   -3257.24492042 Ry
     estimated scf accuracy    <       0.21116334 Ry

     iteration # 18     ecut=    40.00 Ry     beta= 0.20
     Davidson diagonalization with overlap

---- Real-time Memory Report at c_bands before calling an iterative solver
           484 MiB given to the printing process from OS
             0 MiB allocation reported by mallinfo(arena+hblkhd)
        175431 MiB available memory on the node where the printing process lives
------------------
     c_bands:  1 eigenvalues not converged
     ethr =  3.59E-05,  avg # of iterations = 20.0

     negative rho (up, down):  1.013E-02 0.000E+00

     total cpu time spent up to now is      216.0 secs

     total energy              =   -3257.24937484 Ry
     estimated scf accuracy    <       0.07347618 Ry

     iteration # 19     ecut=    40.00 Ry     beta= 0.20
     Davidson diagonalization with overlap

---- Real-time Memory Report at c_bands before calling an iterative solver
           484 MiB given to the printing process from OS
             0 MiB allocation reported by mallinfo(arena+hblkhd)
        175418 MiB available memory on the node where the printing process lives
------------------
     c_bands:  1 eigenvalues not converged
     ethr =  1.40E-05,  avg # of iterations = 20.0

     negative rho (up, down):  1.021E-02 0.000E+00

     total cpu time spent up to now is      226.6 secs

     total energy              =   -3257.24904282 Ry
     estimated scf accuracy    <       0.13368615 Ry

     iteration # 20     ecut=    40.00 Ry     beta= 0.20
     Davidson diagonalization with overlap

---- Real-time Memory Report at c_bands before calling an iterative solver
           484 MiB given to the printing process from OS
             0 MiB allocation reported by mallinfo(arena+hblkhd)
        175432 MiB available memory on the node where the printing process lives
------------------
     c_bands:  1 eigenvalues not converged
     ethr =  1.40E-05,  avg # of iterations = 20.0

     negative rho (up, down):  1.037E-02 0.000E+00

     total cpu time spent up to now is      236.8 secs

     total energy              =   -3257.24912911 Ry
     estimated scf accuracy    <       0.03338752 Ry

     iteration # 21     ecut=    40.00 Ry     beta= 0.20
     Davidson diagonalization with overlap

---- Real-time Memory Report at c_bands before calling an iterative solver
           484 MiB given to the printing process from OS
             0 MiB allocation reported by mallinfo(arena+hblkhd)
        175418 MiB available memory on the node where the printing process lives
------------------
     c_bands:  1 eigenvalues not converged
     ethr =  6.35E-06,  avg # of iterations = 20.0

     negative rho (up, down):  1.050E-02 0.000E+00

     total cpu time spent up to now is      247.5 secs

     total energy              =   -3257.24796551 Ry
     estimated scf accuracy    <       0.11209341 Ry

     iteration # 22     ecut=    40.00 Ry     beta= 0.20
     Davidson diagonalization with overlap

---- Real-time Memory Report at c_bands before calling an iterative solver
           484 MiB given to the printing process from OS
             0 MiB allocation reported by mallinfo(arena+hblkhd)
        175423 MiB available memory on the node where the printing process lives
------------------
     c_bands:  1 eigenvalues not converged
     ethr =  6.35E-06,  avg # of iterations = 20.0

     negative rho (up, down):  1.050E-02 0.000E+00

     total cpu time spent up to now is      258.0 secs

     total energy              =   -3257.25055214 Ry
     estimated scf accuracy    <       0.02569591 Ry

     iteration # 23     ecut=    40.00 Ry     beta= 0.20
     Davidson diagonalization with overlap

---- Real-time Memory Report at c_bands before calling an iterative solver
           484 MiB given to the printing process from OS
             0 MiB allocation reported by mallinfo(arena+hblkhd)
        175419 MiB available memory on the node where the printing process lives
------------------
     c_bands:  1 eigenvalues not converged
     ethr =  4.89E-06,  avg # of iterations = 20.0

     negative rho (up, down):  1.046E-02 0.000E+00

     total cpu time spent up to now is      268.6 secs

     total energy              =   -3257.24989832 Ry
     estimated scf accuracy    <       0.03278442 Ry

     iteration # 24     ecut=    40.00 Ry     beta= 0.20
     Davidson diagonalization with overlap

---- Real-time Memory Report at c_bands before calling an iterative solver
           484 MiB given to the printing process from OS
             0 MiB allocation reported by mallinfo(arena+hblkhd)
        175431 MiB available memory on the node where the printing process lives
------------------
     c_bands:  1 eigenvalues not converged
     ethr =  4.89E-06,  avg # of iterations = 20.0

     negative rho (up, down):  1.045E-02 0.000E+00

     total cpu time spent up to now is      279.1 secs

     total energy              =   -3257.25101657 Ry
     estimated scf accuracy    <       0.04178094 Ry

     iteration # 25     ecut=    40.00 Ry     beta= 0.20
     Davidson diagonalization with overlap

---- Real-time Memory Report at c_bands before calling an iterative solver
           484 MiB given to the printing process from OS
             0 MiB allocation reported by mallinfo(arena+hblkhd)
        175418 MiB available memory on the node where the printing process lives
------------------
     c_bands:  1 eigenvalues not converged
     ethr =  4.89E-06,  avg # of iterations = 20.0

     negative rho (up, down):  1.046E-02 0.000E+00

     total cpu time spent up to now is      289.4 secs

     total energy              =   -3257.25204575 Ry
     estimated scf accuracy    <       0.04306804 Ry

     iteration # 26     ecut=    40.00 Ry     beta= 0.20
     Davidson diagonalization with overlap

---- Real-time Memory Report at c_bands before calling an iterative solver
           484 MiB given to the printing process from OS
             0 MiB allocation reported by mallinfo(arena+hblkhd)
        175422 MiB available memory on the node where the printing process lives
------------------
     c_bands:  1 eigenvalues not converged
     ethr =  4.89E-06,  avg # of iterations = 20.0

     negative rho (up, down):  1.049E-02 0.000E+00

     total cpu time spent up to now is      299.6 secs

     total energy              =   -3257.25262806 Ry
     estimated scf accuracy    <       0.10946071 Ry

     iteration # 27     ecut=    40.00 Ry     beta= 0.20
     Davidson diagonalization with overlap

---- Real-time Memory Report at c_bands before calling an iterative solver
           484 MiB given to the printing process from OS
             0 MiB allocation reported by mallinfo(arena+hblkhd)
        175417 MiB available memory on the node where the printing process lives
------------------
     ethr =  4.89E-06,  avg # of iterations = 18.0

     negative rho (up, down):  1.057E-02 0.000E+00

     total cpu time spent up to now is      310.1 secs

     total energy              =   -3257.25232217 Ry
     estimated scf accuracy    <       0.10398117 Ry

     iteration # 28     ecut=    40.00 Ry     beta= 0.20
     Davidson diagonalization with overlap

---- Real-time Memory Report at c_bands before calling an iterative solver
           484 MiB given to the printing process from OS
             0 MiB allocation reported by mallinfo(arena+hblkhd)
        175418 MiB available memory on the node where the printing process lives
------------------
     c_bands:  1 eigenvalues not converged
     ethr =  4.89E-06,  avg # of iterations = 20.0

     negative rho (up, down):  1.056E-02 0.000E+00

     total cpu time spent up to now is      320.4 secs

     total energy              =   -3257.25309705 Ry
     estimated scf accuracy    <       0.06496115 Ry

     iteration # 29     ecut=    40.00 Ry     beta= 0.20
     Davidson diagonalization with overlap

---- Real-time Memory Report at c_bands before calling an iterative solver
           484 MiB given to the printing process from OS
             0 MiB allocation reported by mallinfo(arena+hblkhd)
        175419 MiB available memory on the node where the printing process lives
------------------
     ethr =  4.89E-06,  avg # of iterations = 14.0

     negative rho (up, down):  1.064E-02 0.000E+00

     total cpu time spent up to now is      330.2 secs

     total energy              =   -3257.25404817 Ry
     estimated scf accuracy    <       0.03574475 Ry

     iteration # 30     ecut=    40.00 Ry     beta= 0.20
     Davidson diagonalization with overlap

---- Real-time Memory Report at c_bands before calling an iterative solver
           484 MiB given to the printing process from OS
             0 MiB allocation reported by mallinfo(arena+hblkhd)
        175424 MiB available memory on the node where the printing process lives
------------------
     ethr =  4.89E-06,  avg # of iterations = 17.0

     negative rho (up, down):  1.072E-02 0.000E+00

     total cpu time spent up to now is      340.6 secs

     total energy              =   -3257.25296188 Ry
     estimated scf accuracy    <       0.06447953 Ry

     iteration # 31     ecut=    40.00 Ry     beta= 0.20
     Davidson diagonalization with overlap

---- Real-time Memory Report at c_bands before calling an iterative solver
           484 MiB given to the printing process from OS
             0 MiB allocation reported by mallinfo(arena+hblkhd)
        175438 MiB available memory on the node where the printing process lives
------------------
     c_bands:  1 eigenvalues not converged
     ethr =  4.89E-06,  avg # of iterations = 20.0

     negative rho (up, down):  1.076E-02 0.000E+00

     total cpu time spent up to now is      351.2 secs

     total energy              =   -3257.25338495 Ry
     estimated scf accuracy    <       0.04161218 Ry

     iteration # 32     ecut=    40.00 Ry     beta= 0.20
     Davidson diagonalization with overlap

---- Real-time Memory Report at c_bands before calling an iterative solver
           484 MiB given to the printing process from OS
             0 MiB allocation reported by mallinfo(arena+hblkhd)
        175428 MiB available memory on the node where the printing process lives
------------------
     ethr =  4.89E-06,  avg # of iterations =  2.0

     negative rho (up, down):  1.064E-02 0.000E+00

     total cpu time spent up to now is      360.5 secs

     total energy              =   -3257.24913223 Ry
     estimated scf accuracy    <       0.04059937 Ry

     iteration # 33     ecut=    40.00 Ry     beta= 0.20
     Davidson diagonalization with overlap

---- Real-time Memory Report at c_bands before calling an iterative solver
           484 MiB given to the printing process from OS
             0 MiB allocation reported by mallinfo(arena+hblkhd)
        175433 MiB available memory on the node where the printing process lives
------------------
     c_bands:  1 eigenvalues not converged
     ethr =  4.89E-06,  avg # of iterations = 20.0

     negative rho (up, down):  1.065E-02 0.000E+00

     total cpu time spent up to now is      370.7 secs

     total energy              =   -3257.25274493 Ry
     estimated scf accuracy    <       0.30199978 Ry

     iteration # 34     ecut=    40.00 Ry     beta= 0.20
     Davidson diagonalization with overlap

---- Real-time Memory Report at c_bands before calling an iterative solver
           484 MiB given to the printing process from OS
             0 MiB allocation reported by mallinfo(arena+hblkhd)
        175426 MiB available memory on the node where the printing process lives
------------------
     c_bands:  1 eigenvalues not converged
     ethr =  4.89E-06,  avg # of iterations = 20.0

     negative rho (up, down):  1.070E-02 0.000E+00

     total cpu time spent up to now is      381.1 secs

     total energy              =   -3257.24266680 Ry
     estimated scf accuracy    <       0.16443505 Ry

     iteration # 35     ecut=    40.00 Ry     beta= 0.20
     Davidson diagonalization with overlap

---- Real-time Memory Report at c_bands before calling an iterative solver
           484 MiB given to the printing process from OS
             0 MiB allocation reported by mallinfo(arena+hblkhd)
        175424 MiB available memory on the node where the printing process lives
------------------
     c_bands:  1 eigenvalues not converged
     ethr =  4.89E-06,  avg # of iterations = 20.0

     negative rho (up, down):  1.080E-02 0.000E+00

     total cpu time spent up to now is      392.9 secs

     total energy              =   -3257.23760134 Ry
     estimated scf accuracy    <       0.08906441 Ry

     iteration # 36     ecut=    40.00 Ry     beta= 0.20
     Davidson diagonalization with overlap

---- Real-time Memory Report at c_bands before calling an iterative solver
           484 MiB given to the printing process from OS
             0 MiB allocation reported by mallinfo(arena+hblkhd)
        175424 MiB available memory on the node where the printing process lives
------------------
     c_bands:  1 eigenvalues not converged
     ethr =  4.89E-06,  avg # of iterations = 20.0

     negative rho (up, down):  1.073E-02 0.000E+00

     total cpu time spent up to now is      405.6 secs

     total energy              =   -3257.24212955 Ry
     estimated scf accuracy    <       0.45902047 Ry

     iteration # 37     ecut=    40.00 Ry     beta= 0.20
     Davidson diagonalization with overlap

---- Real-time Memory Report at c_bands before calling an iterative solver
           484 MiB given to the printing process from OS
             0 MiB allocation reported by mallinfo(arena+hblkhd)
        175425 MiB available memory on the node where the printing process lives
------------------
     c_bands:  1 eigenvalues not converged
     ethr =  4.89E-06,  avg # of iterations = 20.0

     negative rho (up, down):  1.069E-02 0.000E+00

     total cpu time spent up to now is      416.5 secs

     total energy              =   -3257.24717440 Ry
     estimated scf accuracy    <       0.12738501 Ry

     iteration # 38     ecut=    40.00 Ry     beta= 0.20
     Davidson diagonalization with overlap

---- Real-time Memory Report at c_bands before calling an iterative solver
           484 MiB given to the printing process from OS
             0 MiB allocation reported by mallinfo(arena+hblkhd)
        175432 MiB available memory on the node where the printing process lives
------------------
     c_bands:  1 eigenvalues not converged
     ethr =  4.89E-06,  avg # of iterations = 20.0

     negative rho (up, down):  1.066E-02 0.000E+00

     total cpu time spent up to now is      427.1 secs

     total energy              =   -3257.24776222 Ry
     estimated scf accuracy    <       0.04273613 Ry

     iteration # 39     ecut=    40.00 Ry     beta= 0.20
     Davidson diagonalization with overlap

---- Real-time Memory Report at c_bands before calling an iterative solver
           484 MiB given to the printing process from OS
             0 MiB allocation reported by mallinfo(arena+hblkhd)
        175423 MiB available memory on the node where the printing process lives
------------------
     c_bands:  1 eigenvalues not converged
     ethr =  4.89E-06,  avg # of iterations = 20.0

     negative rho (up, down):  1.065E-02 0.000E+00

     total cpu time spent up to now is      438.0 secs

     total energy              =   -3257.24740461 Ry
     estimated scf accuracy    <       0.07103594 Ry

     iteration # 40     ecut=    40.00 Ry     beta= 0.20
     Davidson diagonalization with overlap

---- Real-time Memory Report at c_bands before calling an iterative solver
           490 MiB given to the printing process from OS
             0 MiB allocation reported by mallinfo(arena+hblkhd)
        175411 MiB available memory on the node where the printing process lives
------------------
     c_bands:  1 eigenvalues not converged
     ethr =  4.89E-06,  avg # of iterations = 20.0

     negative rho (up, down):  1.063E-02 0.000E+00

     total cpu time spent up to now is      448.3 secs

     total energy              =   -3257.24831182 Ry
     estimated scf accuracy    <       0.07499094 Ry

     iteration # 41     ecut=    40.00 Ry     beta= 0.20
     Davidson diagonalization with overlap

---- Real-time Memory Report at c_bands before calling an iterative solver
           490 MiB given to the printing process from OS
             0 MiB allocation reported by mallinfo(arena+hblkhd)
        175412 MiB available memory on the node where the printing process lives
------------------
     c_bands:  1 eigenvalues not converged
     ethr =  4.89E-06,  avg # of iterations = 20.0

     negative rho (up, down):  1.062E-02 0.000E+00

     total cpu time spent up to now is      458.5 secs

     total energy              =   -3257.25024114 Ry
     estimated scf accuracy    <       0.04410257 Ry

     iteration # 42     ecut=    40.00 Ry     beta= 0.20
     Davidson diagonalization with overlap

---- Real-time Memory Report at c_bands before calling an iterative solver
           494 MiB given to the printing process from OS
             0 MiB allocation reported by mallinfo(arena+hblkhd)
        175409 MiB available memory on the node where the printing process lives
------------------
     c_bands:  1 eigenvalues not converged
     ethr =  4.89E-06,  avg # of iterations = 20.0

     negative rho (up, down):  1.063E-02 0.000E+00

     total cpu time spent up to now is      469.2 secs

     total energy              =   -3257.25030098 Ry
     estimated scf accuracy    <       0.04078880 Ry

     iteration # 43     ecut=    40.00 Ry     beta= 0.20
     Davidson diagonalization with overlap

---- Real-time Memory Report at c_bands before calling an iterative solver
           494 MiB given to the printing process from OS
             0 MiB allocation reported by mallinfo(arena+hblkhd)
        175406 MiB available memory on the node where the printing process lives
------------------
     ethr =  4.89E-06,  avg # of iterations = 17.0

     negative rho (up, down):  1.063E-02 0.000E+00

     total cpu time spent up to now is      479.6 secs

     total energy              =   -3257.25005072 Ry
     estimated scf accuracy    <       0.02682652 Ry

     iteration # 44     ecut=    40.00 Ry     beta= 0.20
     Davidson diagonalization with overlap

---- Real-time Memory Report at c_bands before calling an iterative solver
           494 MiB given to the printing process from OS
             0 MiB allocation reported by mallinfo(arena+hblkhd)
        175420 MiB available memory on the node where the printing process lives
------------------
     ethr =  4.89E-06,  avg # of iterations =  2.0

     negative rho (up, down):  1.063E-02 0.000E+00

     total cpu time spent up to now is      488.9 secs

     total energy              =   -3257.24863599 Ry
     estimated scf accuracy    <       0.02444605 Ry

     iteration # 45     ecut=    40.00 Ry     beta= 0.20
     Davidson diagonalization with overlap

---- Real-time Memory Report at c_bands before calling an iterative solver
           494 MiB given to the printing process from OS
             0 MiB allocation reported by mallinfo(arena+hblkhd)
        175407 MiB available memory on the node where the printing process lives
------------------
     c_bands:  1 eigenvalues not converged
     ethr =  4.65E-06,  avg # of iterations = 20.0

     negative rho (up, down):  1.064E-02 0.000E+00

     total cpu time spent up to now is      499.5 secs

     total energy              =   -3257.24533386 Ry
     estimated scf accuracy    <       0.12336468 Ry

     iteration # 46     ecut=    40.00 Ry     beta= 0.20
     Davidson diagonalization with overlap

---- Real-time Memory Report at c_bands before calling an iterative solver
           499 MiB given to the printing process from OS
             0 MiB allocation reported by mallinfo(arena+hblkhd)
        175414 MiB available memory on the node where the printing process lives
------------------
     c_bands:  1 eigenvalues not converged
     ethr =  4.65E-06,  avg # of iterations = 20.0

     negative rho (up, down):  1.065E-02 0.000E+00

     total cpu time spent up to now is      510.1 secs

     total energy              =   -3257.24970048 Ry
     estimated scf accuracy    <       0.02066852 Ry

     iteration # 47     ecut=    40.00 Ry     beta= 0.20
     Davidson diagonalization with overlap

---- Real-time Memory Report at c_bands before calling an iterative solver
           499 MiB given to the printing process from OS
             0 MiB allocation reported by mallinfo(arena+hblkhd)
        175398 MiB available memory on the node where the printing process lives
------------------
     c_bands:  1 eigenvalues not converged
     ethr =  3.93E-06,  avg # of iterations = 20.0

     negative rho (up, down):  1.065E-02 0.000E+00

     total cpu time spent up to now is      520.7 secs

     total energy              =   -3257.25132842 Ry
     estimated scf accuracy    <       0.17501998 Ry

     iteration # 48     ecut=    40.00 Ry     beta= 0.20
     Davidson diagonalization with overlap

---- Real-time Memory Report at c_bands before calling an iterative solver
           499 MiB given to the printing process from OS
             0 MiB allocation reported by mallinfo(arena+hblkhd)
        175408 MiB available memory on the node where the printing process lives
------------------
     ethr =  3.93E-06,  avg # of iterations = 19.0

     negative rho (up, down):  1.064E-02 0.000E+00

     total cpu time spent up to now is      531.3 secs

     total energy              =   -3257.24943100 Ry
     estimated scf accuracy    <       0.15196057 Ry

     iteration # 49     ecut=    40.00 Ry     beta= 0.20
     Davidson diagonalization with overlap

---- Real-time Memory Report at c_bands before calling an iterative solver
           499 MiB given to the printing process from OS
             0 MiB allocation reported by mallinfo(arena+hblkhd)
        175397 MiB available memory on the node where the printing process lives
------------------
     c_bands:  1 eigenvalues not converged
     ethr =  3.93E-06,  avg # of iterations = 20.0

     negative rho (up, down):  1.064E-02 0.000E+00

     total cpu time spent up to now is      541.6 secs

     total energy              =   -3257.24930756 Ry
     estimated scf accuracy    <       0.06243519 Ry

     iteration # 50     ecut=    40.00 Ry     beta= 0.20
     Davidson diagonalization with overlap

---- Real-time Memory Report at c_bands before calling an iterative solver
           499 MiB given to the printing process from OS
             0 MiB allocation reported by mallinfo(arena+hblkhd)
        175399 MiB available memory on the node where the printing process lives
------------------
     c_bands:  1 eigenvalues not converged
     ethr =  3.93E-06,  avg # of iterations = 20.0

     negative rho (up, down):  1.064E-02 0.000E+00

     total cpu time spent up to now is      551.8 secs

     total energy              =   -3257.25008956 Ry
     estimated scf accuracy    <       0.06051672 Ry

     iteration # 51     ecut=    40.00 Ry     beta= 0.20
     Davidson diagonalization with overlap

---- Real-time Memory Report at c_bands before calling an iterative solver
           499 MiB given to the printing process from OS
             0 MiB allocation reported by mallinfo(arena+hblkhd)
        175398 MiB available memory on the node where the printing process lives
------------------
     c_bands:  1 eigenvalues not converged
     ethr =  3.93E-06,  avg # of iterations = 20.0

     negative rho (up, down):  1.065E-02 0.000E+00

     total cpu time spent up to now is      562.5 secs

     total energy              =   -3257.25073049 Ry
     estimated scf accuracy    <       0.04207745 Ry

     iteration # 52     ecut=    40.00 Ry     beta= 0.20
     Davidson diagonalization with overlap

---- Real-time Memory Report at c_bands before calling an iterative solver
           499 MiB given to the printing process from OS
             0 MiB allocation reported by mallinfo(arena+hblkhd)
        175404 MiB available memory on the node where the printing process lives
------------------
     c_bands:  1 eigenvalues not converged
     ethr =  3.93E-06,  avg # of iterations = 20.0

     negative rho (up, down):  1.066E-02 0.000E+00

     total cpu time spent up to now is      572.8 secs

     total energy              =   -3257.25023217 Ry
     estimated scf accuracy    <       0.03597180 Ry

     iteration # 53     ecut=    40.00 Ry     beta= 0.20
     Davidson diagonalization with overlap

---- Real-time Memory Report at c_bands before calling an iterative solver
           499 MiB given to the printing process from OS
             0 MiB allocation reported by mallinfo(arena+hblkhd)
        175395 MiB available memory on the node where the printing process lives
------------------
     c_bands:  1 eigenvalues not converged
     ethr =  3.93E-06,  avg # of iterations = 20.0

     negative rho (up, down):  1.069E-02 0.000E+00

     total cpu time spent up to now is      583.4 secs

     total energy              =   -3257.24987455 Ry
     estimated scf accuracy    <       0.19297348 Ry

     iteration # 54     ecut=    40.00 Ry     beta= 0.20
     Davidson diagonalization with overlap

---- Real-time Memory Report at c_bands before calling an iterative solver
           499 MiB given to the printing process from OS
             0 MiB allocation reported by mallinfo(arena+hblkhd)
        175397 MiB available memory on the node where the printing process lives
------------------
     c_bands:  1 eigenvalues not converged
     ethr =  3.93E-06,  avg # of iterations = 20.0

     negative rho (up, down):  1.067E-02 0.000E+00

     total cpu time spent up to now is      593.7 secs

     total energy              =   -3257.24801175 Ry
     estimated scf accuracy    <       0.13936370 Ry

     iteration # 55     ecut=    40.00 Ry     beta= 0.20
     Davidson diagonalization with overlap

---- Real-time Memory Report at c_bands before calling an iterative solver
           499 MiB given to the printing process from OS
             0 MiB allocation reported by mallinfo(arena+hblkhd)
        175395 MiB available memory on the node where the printing process lives
------------------
     c_bands:  1 eigenvalues not converged
     ethr =  3.93E-06,  avg # of iterations = 20.0

     negative rho (up, down):  1.067E-02 0.000E+00

     total cpu time spent up to now is      603.9 secs

     total energy              =   -3257.24707137 Ry
     estimated scf accuracy    <       0.14160432 Ry

     iteration # 56     ecut=    40.00 Ry     beta= 0.20
     Davidson diagonalization with overlap

---- Real-time Memory Report at c_bands before calling an iterative solver
           499 MiB given to the printing process from OS
             0 MiB allocation reported by mallinfo(arena+hblkhd)
        175396 MiB available memory on the node where the printing process lives
------------------
     c_bands:  1 eigenvalues not converged
     ethr =  3.93E-06,  avg # of iterations = 20.0

     negative rho (up, down):  1.067E-02 0.000E+00

     total cpu time spent up to now is      614.5 secs

     total energy              =   -3257.24885297 Ry
     estimated scf accuracy    <       0.05300422 Ry

     iteration # 57     ecut=    40.00 Ry     beta= 0.20
     Davidson diagonalization with overlap

---- Real-time Memory Report at c_bands before calling an iterative solver
           499 MiB given to the printing process from OS
             0 MiB allocation reported by mallinfo(arena+hblkhd)
        175409 MiB available memory on the node where the printing process lives
------------------
     c_bands:  1 eigenvalues not converged
     ethr =  3.93E-06,  avg # of iterations = 20.0

     negative rho (up, down):  1.074E-02 0.000E+00

     total cpu time spent up to now is      625.2 secs

     total energy              =   -3257.25248539 Ry
     estimated scf accuracy    <       0.04397983 Ry

     iteration # 58     ecut=    40.00 Ry     beta= 0.20
     Davidson diagonalization with overlap

---- Real-time Memory Report at c_bands before calling an iterative solver
           499 MiB given to the printing process from OS
             0 MiB allocation reported by mallinfo(arena+hblkhd)
        175393 MiB available memory on the node where the printing process lives
------------------
     c_bands:  1 eigenvalues not converged
     ethr =  3.93E-06,  avg # of iterations = 20.0

     negative rho (up, down):  1.076E-02 0.000E+00

     total cpu time spent up to now is      635.9 secs

     total energy              =   -3257.25578535 Ry
     estimated scf accuracy    <       0.17923038 Ry

     iteration # 59     ecut=    40.00 Ry     beta= 0.20
     Davidson diagonalization with overlap

---- Real-time Memory Report at c_bands before calling an iterative solver
           500 MiB given to the printing process from OS
             0 MiB allocation reported by mallinfo(arena+hblkhd)
        175393 MiB available memory on the node where the printing process lives
------------------
     c_bands:  1 eigenvalues not converged
     ethr =  3.93E-06,  avg # of iterations = 20.0

     negative rho (up, down):  1.078E-02 0.000E+00

     total cpu time spent up to now is      646.2 secs

     total energy              =   -3257.25504059 Ry
     estimated scf accuracy    <       0.18514194 Ry

     iteration # 60     ecut=    40.00 Ry     beta= 0.20
     Davidson diagonalization with overlap

---- Real-time Memory Report at c_bands before calling an iterative solver
           500 MiB given to the printing process from OS
             0 MiB allocation reported by mallinfo(arena+hblkhd)
        175393 MiB available memory on the node where the printing process lives
------------------
     c_bands:  1 eigenvalues not converged
     ethr =  3.93E-06,  avg # of iterations = 20.0

     negative rho (up, down):  1.072E-02 0.000E+00

     total cpu time spent up to now is      656.8 secs

     total energy              =   -3257.24602162 Ry
     estimated scf accuracy    <       0.20815435 Ry

     iteration # 61     ecut=    40.00 Ry     beta= 0.20
     Davidson diagonalization with overlap

---- Real-time Memory Report at c_bands before calling an iterative solver
           500 MiB given to the printing process from OS
             0 MiB allocation reported by mallinfo(arena+hblkhd)
        175396 MiB available memory on the node where the printing process lives
------------------
     c_bands:  1 eigenvalues not converged
     ethr =  3.93E-06,  avg # of iterations = 20.0

[...]
             0 MiB allocation reported by mallinfo(arena+hblkhd)
        175312 MiB available memory on the node where the printing process lives
------------------
     c_bands:  1 eigenvalues not converged
     ethr =  3.30E-06,  avg # of iterations = 20.0

     negative rho (up, down):  1.071E-02 0.000E+00

     total cpu time spent up to now is     1913.2 secs

     total energy              =   -3257.24900264 Ry
     estimated scf accuracy    <       0.12368264 Ry

     iteration #179     ecut=    40.00 Ry     beta= 0.20
     Davidson diagonalization with overlap

---- Real-time Memory Report at c_bands before calling an iterative solver
           506 MiB given to the printing process from OS
             0 MiB allocation reported by mallinfo(arena+hblkhd)
        175311 MiB available memory on the node where the printing process lives
------------------
     c_bands:  1 eigenvalues not converged
     ethr =  3.30E-06,  avg # of iterations = 20.0

     negative rho (up, down):  1.069E-02 0.000E+00

     total cpu time spent up to now is     1923.5 secs

     total energy              =   -3257.24995981 Ry
     estimated scf accuracy    <       0.04587412 Ry

     iteration #180     ecut=    40.00 Ry     beta= 0.20
     Davidson diagonalization with overlap

---- Real-time Memory Report at c_bands before calling an iterative solver
           506 MiB given to the printing process from OS
             0 MiB allocation reported by mallinfo(arena+hblkhd)
        175313 MiB available memory on the node where the printing process lives
------------------
     c_bands:  1 eigenvalues not converged
     ethr =  3.30E-06,  avg # of iterations = 20.0

     negative rho (up, down):  1.069E-02 0.000E+00

     total cpu time spent up to now is     1934.1 secs

     total energy              =   -3257.24928639 Ry
     estimated scf accuracy    <       0.06955266 Ry

     iteration #181     ecut=    40.00 Ry     beta= 0.20
     Davidson diagonalization with overlap

---- Real-time Memory Report at c_bands before calling an iterative solver
           506 MiB given to the printing process from OS
             0 MiB allocation reported by mallinfo(arena+hblkhd)
        175311 MiB available memory on the node where the printing process lives
------------------
     ethr =  3.30E-06,  avg # of iterations = 19.0

     negative rho (up, down):  1.068E-02 0.000E+00

     total cpu time spent up to now is     1944.4 secs

     total energy              =   -3257.24961369 Ry
     estimated scf accuracy    <       0.01494305 Ry

     iteration #182     ecut=    40.00 Ry     beta= 0.20
     Davidson diagonalization with overlap

---- Real-time Memory Report at c_bands before calling an iterative solver
           506 MiB given to the printing process from OS
             0 MiB allocation reported by mallinfo(arena+hblkhd)
        175310 MiB available memory on the node where the printing process lives
------------------
     ethr =  2.84E-06,  avg # of iterations =  1.0

     negative rho (up, down):  1.069E-02 0.000E+00

     total cpu time spent up to now is     1952.8 secs

     total energy              =   -3257.24892204 Ry
     estimated scf accuracy    <       0.01382451 Ry

     iteration #183     ecut=    40.00 Ry     beta= 0.20
     Davidson diagonalization with overlap

---- Real-time Memory Report at c_bands before calling an iterative solver
           506 MiB given to the printing process from OS
             0 MiB allocation reported by mallinfo(arena+hblkhd)
        175314 MiB available memory on the node where the printing process lives
------------------
     c_bands:  1 eigenvalues not converged
     ethr =  2.63E-06,  avg # of iterations = 20.0

     negative rho (up, down):  1.068E-02 0.000E+00

     total cpu time spent up to now is     1963.4 secs

     total energy              =   -3257.25062755 Ry
     estimated scf accuracy    <       0.07543641 Ry

     iteration #184     ecut=    40.00 Ry     beta= 0.20
     Davidson diagonalization with overlap

---- Real-time Memory Report at c_bands before calling an iterative solver
           506 MiB given to the printing process from OS
             0 MiB allocation reported by mallinfo(arena+hblkhd)
        175315 MiB available memory on the node where the printing process lives
------------------
     c_bands:  1 eigenvalues not converged
     ethr =  2.63E-06,  avg # of iterations = 20.0

     negative rho (up, down):  1.067E-02 0.000E+00

     total cpu time spent up to now is     1973.7 secs

     total energy              =   -3257.25203850 Ry
     estimated scf accuracy    <       0.06280230 Ry

     iteration #185     ecut=    40.00 Ry     beta= 0.20
     Davidson diagonalization with overlap

---- Real-time Memory Report at c_bands before calling an iterative solver
           506 MiB given to the printing process from OS
             0 MiB allocation reported by mallinfo(arena+hblkhd)
        175311 MiB available memory on the node where the printing process lives
------------------
     c_bands:  1 eigenvalues not converged
     ethr =  2.63E-06,  avg # of iterations = 20.0

     negative rho (up, down):  1.070E-02 0.000E+00

     total cpu time spent up to now is     1984.3 secs

     total energy              =   -3257.25374357 Ry
     estimated scf accuracy    <       0.12568790 Ry

     iteration #186     ecut=    40.00 Ry     beta= 0.20
     Davidson diagonalization with overlap

---- Real-time Memory Report at c_bands before calling an iterative solver
           506 MiB given to the printing process from OS
             0 MiB allocation reported by mallinfo(arena+hblkhd)
        175308 MiB available memory on the node where the printing process lives
------------------
     c_bands:  1 eigenvalues not converged
     ethr =  2.63E-06,  avg # of iterations = 20.0

     negative rho (up, down):  1.070E-02 0.000E+00

     total cpu time spent up to now is     1994.6 secs

     total energy              =   -3257.25321446 Ry
     estimated scf accuracy    <       0.13274019 Ry

     iteration #187     ecut=    40.00 Ry     beta= 0.20
     Davidson diagonalization with overlap

---- Real-time Memory Report at c_bands before calling an iterative solver
           506 MiB given to the printing process from OS
             0 MiB allocation reported by mallinfo(arena+hblkhd)
        175308 MiB available memory on the node where the printing process lives
------------------
     c_bands:  1 eigenvalues not converged
     ethr =  2.63E-06,  avg # of iterations = 20.0

     negative rho (up, down):  1.072E-02 0.000E+00

     total cpu time spent up to now is     2004.9 secs

     total energy              =   -3257.25337105 Ry
     estimated scf accuracy    <       0.11708253 Ry

     iteration #188     ecut=    40.00 Ry     beta= 0.20
     Davidson diagonalization with overlap

---- Real-time Memory Report at c_bands before calling an iterative solver
           506 MiB given to the printing process from OS
             0 MiB allocation reported by mallinfo(arena+hblkhd)
        175306 MiB available memory on the node where the printing process lives
------------------
     ethr =  2.63E-06,  avg # of iterations =  2.0

     negative rho (up, down):  1.072E-02 0.000E+00

     total cpu time spent up to now is     2013.8 secs

     total energy              =   -3257.25261767 Ry
     estimated scf accuracy    <       0.11659786 Ry

     iteration #189     ecut=    40.00 Ry     beta= 0.20
     Davidson diagonalization with overlap

---- Real-time Memory Report at c_bands before calling an iterative solver
           506 MiB given to the printing process from OS
             0 MiB allocation reported by mallinfo(arena+hblkhd)
        175306 MiB available memory on the node where the printing process lives
------------------
     c_bands:  1 eigenvalues not converged
     ethr =  2.63E-06,  avg # of iterations = 20.0

     negative rho (up, down):  1.076E-02 0.000E+00

     total cpu time spent up to now is     2024.1 secs

     total energy              =   -3257.25324827 Ry
     estimated scf accuracy    <       0.14029901 Ry

     iteration #190     ecut=    40.00 Ry     beta= 0.20
     Davidson diagonalization with overlap

---- Real-time Memory Report at c_bands before calling an iterative solver
           506 MiB given to the printing process from OS
             0 MiB allocation reported by mallinfo(arena+hblkhd)
        175304 MiB available memory on the node where the printing process lives
------------------
     ethr =  2.63E-06,  avg # of iterations =  2.0

     negative rho (up, down):  1.078E-02 0.000E+00

     total cpu time spent up to now is     2033.0 secs

     total energy              =   -3257.25245004 Ry
     estimated scf accuracy    <       0.14080311 Ry

     iteration #191     ecut=    40.00 Ry     beta= 0.20
     Davidson diagonalization with overlap

---- Real-time Memory Report at c_bands before calling an iterative solver
           506 MiB given to the printing process from OS
             0 MiB allocation reported by mallinfo(arena+hblkhd)
        175304 MiB available memory on the node where the printing process lives
------------------
     ethr =  2.63E-06,  avg # of iterations = 19.0

     negative rho (up, down):  1.071E-02 0.000E+00

     total cpu time spent up to now is     2043.5 secs

     total energy              =   -3257.25026154 Ry
     estimated scf accuracy    <       0.11321907 Ry

     iteration #192     ecut=    40.00 Ry     beta= 0.20
     Davidson diagonalization with overlap

---- Real-time Memory Report at c_bands before calling an iterative solver
           506 MiB given to the printing process from OS
             0 MiB allocation reported by mallinfo(arena+hblkhd)
        175316 MiB available memory on the node where the printing process lives
------------------
     c_bands:  1 eigenvalues not converged
     ethr =  2.63E-06,  avg # of iterations = 20.0

     negative rho (up, down):  1.069E-02 0.000E+00

     total cpu time spent up to now is     2054.1 secs

     total energy              =   -3257.25200802 Ry
     estimated scf accuracy    <       0.14237651 Ry

     iteration #193     ecut=    40.00 Ry     beta= 0.20
     Davidson diagonalization with overlap

---- Real-time Memory Report at c_bands before calling an iterative solver
           506 MiB given to the printing process from OS
             0 MiB allocation reported by mallinfo(arena+hblkhd)
        175302 MiB available memory on the node where the printing process lives
------------------
     c_bands:  1 eigenvalues not converged
     ethr =  2.63E-06,  avg # of iterations = 20.0

     negative rho (up, down):  1.077E-02 0.000E+00

     total cpu time spent up to now is     2064.8 secs

     total energy              =   -3257.24060997 Ry
     estimated scf accuracy    <       0.09482096 Ry

     iteration #194     ecut=    40.00 Ry     beta= 0.20
     Davidson diagonalization with overlap

---- Real-time Memory Report at c_bands before calling an iterative solver
           506 MiB given to the printing process from OS
             0 MiB allocation reported by mallinfo(arena+hblkhd)
        175304 MiB available memory on the node where the printing process lives
------------------
     c_bands:  1 eigenvalues not converged
     ethr =  2.63E-06,  avg # of iterations = 20.0

     negative rho (up, down):  1.064E-02 0.000E+00

     total cpu time spent up to now is     2078.4 secs

     total energy              =   -3257.25108971 Ry
     estimated scf accuracy    <       0.44672062 Ry

     iteration #195     ecut=    40.00 Ry     beta= 0.20
     Davidson diagonalization with overlap

---- Real-time Memory Report at c_bands before calling an iterative solver
           506 MiB given to the printing process from OS
             0 MiB allocation reported by mallinfo(arena+hblkhd)
        175301 MiB available memory on the node where the printing process lives
------------------
     c_bands:  1 eigenvalues not converged
     ethr =  2.63E-06,  avg # of iterations = 20.0

     negative rho (up, down):  1.065E-02 0.000E+00

     total cpu time spent up to now is     2090.2 secs

     total energy              =   -3257.25181978 Ry
     estimated scf accuracy    <       0.18274383 Ry

     iteration #196     ecut=    40.00 Ry     beta= 0.20
     Davidson diagonalization with overlap

---- Real-time Memory Report at c_bands before calling an iterative solver
           506 MiB given to the printing process from OS
             0 MiB allocation reported by mallinfo(arena+hblkhd)
        175299 MiB available memory on the node where the printing process lives
------------------
     c_bands:  1 eigenvalues not converged
     ethr =  2.63E-06,  avg # of iterations = 20.0

     negative rho (up, down):  1.066E-02 0.000E+00

     total cpu time spent up to now is     2100.9 secs

     total energy              =   -3257.25173038 Ry
     estimated scf accuracy    <       0.11393929 Ry

     iteration #197     ecut=    40.00 Ry     beta= 0.20
     Davidson diagonalization with overlap

---- Real-time Memory Report at c_bands before calling an iterative solver
           506 MiB given to the printing process from OS
             0 MiB allocation reported by mallinfo(arena+hblkhd)
        175301 MiB available memory on the node where the printing process lives
------------------
     c_bands:  1 eigenvalues not converged
     ethr =  2.63E-06,  avg # of iterations = 20.0

     negative rho (up, down):  1.066E-02 0.000E+00

     total cpu time spent up to now is     2111.6 secs

     total energy              =   -3257.24978873 Ry
     estimated scf accuracy    <       0.05142118 Ry

     iteration #198     ecut=    40.00 Ry     beta= 0.20
     Davidson diagonalization with overlap

---- Real-time Memory Report at c_bands before calling an iterative solver
           506 MiB given to the printing process from OS
             0 MiB allocation reported by mallinfo(arena+hblkhd)
        175313 MiB available memory on the node where the printing process lives
------------------
     c_bands:  1 eigenvalues not converged
     ethr =  2.63E-06,  avg # of iterations = 20.0

     negative rho (up, down):  1.067E-02 0.000E+00

     total cpu time spent up to now is     2121.9 secs

     total energy              =   -3257.24996462 Ry
     estimated scf accuracy    <       0.03620950 Ry

     iteration #199     ecut=    40.00 Ry     beta= 0.20
     Davidson diagonalization with overlap

---- Real-time Memory Report at c_bands before calling an iterative solver
           506 MiB given to the printing process from OS
             0 MiB allocation reported by mallinfo(arena+hblkhd)
        175301 MiB available memory on the node where the printing process lives
------------------
     ethr =  2.63E-06,  avg # of iterations = 19.0

     negative rho (up, down):  1.067E-02 0.000E+00

     total cpu time spent up to now is     2132.4 secs

     total energy              =   -3257.25031408 Ry
     estimated scf accuracy    <       0.02417369 Ry

     iteration #200     ecut=    40.00 Ry     beta= 0.20
     Davidson diagonalization with overlap

---- Real-time Memory Report at c_bands before calling an iterative solver
           506 MiB given to the printing process from OS
             0 MiB allocation reported by mallinfo(arena+hblkhd)
        175302 MiB available memory on the node where the printing process lives
------------------
     ethr =  2.63E-06,  avg # of iterations =  1.0

     negative rho (up, down):  1.067E-02 0.000E+00

     total cpu time spent up to now is     2140.9 secs

     total energy              =   -3257.25000948 Ry
     estimated scf accuracy    <       0.02388554 Ry

     End of self-consistent calculation

     convergence NOT achieved after 200 iterations: stopping

     Writing config to output data dir ./tmp/MIL125_NH2_convtest.save/ :
     XML data file, charge density distributed wavefunctions

     init_run     :      6.50s CPU      6.73s WALL (       1 calls)
     electrons    :   2084.31s CPU   2134.22s WALL (       1 calls)

     Called by init_run:
     wfcinit      :      4.52s CPU      4.60s WALL (       1 calls)
     wfcinit:atom :      0.01s CPU      0.02s WALL (       1 calls)
     wfcinit:wfcr :      4.43s CPU      4.48s WALL (       1 calls)
     potinit      :      0.37s CPU      0.40s WALL (       1 calls)
     hinit0       :      0.66s CPU      0.68s WALL (       1 calls)

     Called by electrons:
     c_bands      :   1618.11s CPU   1628.94s WALL (     200 calls)
     sum_band     :    287.00s CPU    306.86s WALL (     200 calls)
     v_of_rho     :     34.45s CPU     39.06s WALL (     201 calls)
     v_h          :      2.04s CPU      2.18s WALL (     201 calls)
     v_xc         :     32.41s CPU     36.88s WALL (     201 calls)
     newd         :    112.28s CPU    126.35s WALL (     201 calls)
     PAW_pot      :     22.75s CPU     22.80s WALL (     201 calls)
     mix_rho      :      6.48s CPU      6.68s WALL (     200 calls)
     energy_dftd3 :      0.50s CPU      0.50s WALL (       1 calls)

     Called by c_bands:
     init_us_2    :     11.34s CPU     11.46s WALL (     401 calls)
     cegterg      :   1605.87s CPU   1616.59s WALL (     200 calls)

     Called by sum_band:
     sum_band:wei :      0.00s CPU      0.00s WALL (     200 calls)
     sum_band:loo :    188.15s CPU    188.91s WALL (     200 calls)
     sum_band:buf :      0.00s CPU      0.00s WALL (     200 calls)
     sum_band:ini :      5.71s CPU      5.76s WALL (     200 calls)
     sum_band:cal :     95.70s CPU     95.97s WALL (     200 calls)
     sum_band:bec :      0.36s CPU      0.36s WALL (     200 calls)
     addusdens    :     92.13s CPU    110.93s WALL (     200 calls)
                                        0.00s GPU  (     200 calls)
     addusd:skk   :      7.54s CPU     10.68s WALL (    1000 calls)
                                        0.00s GPU  (    1000 calls)

     Called by *egterg:
     cdiaghg      :    171.89s CPU    172.42s WALL (    3689 calls)
     cegterg:over :    134.87s CPU    135.30s WALL (    3489 calls)
     cegterg:upda :     85.39s CPU     86.35s WALL (    3489 calls)
     cegterg:last :    204.72s CPU    205.25s WALL (     402 calls)
     cdiaghg:chol :      9.10s CPU      9.16s WALL (    3689 calls)
     cdiaghg:inve :      2.88s CPU      2.89s WALL (    3689 calls)
     cdiaghg:para :     39.42s CPU     39.63s WALL (    7378 calls)
     h_psi        :    744.26s CPU    748.77s WALL (    3690 calls)
     s_psi        :    222.21s CPU    222.73s WALL (    3690 calls)
     g_psi        :      1.23s CPU      1.24s WALL (    3489 calls)

     Called by h_psi:
     h_psi:calbec :    230.46s CPU    231.11s WALL (    3690 calls)
     vloc_psi     :    285.93s CPU    287.62s WALL (    3690 calls)
     add_vuspsi   :    225.47s CPU    226.00s WALL (    3690 calls)

     General routines
     calbec       :    326.14s CPU    327.07s WALL (    3890 calls)
     fft          :     24.46s CPU     28.08s WALL (    2613 calls)
     ffts         :      3.53s CPU      3.67s WALL (     401 calls)
     fftw         :    258.80s CPU    260.20s WALL (  280296 calls)
     interpolate  :      1.94s CPU      2.12s WALL (     201 calls)
     davcio       :      0.00s CPU      0.01s WALL (      19 calls)

     Parallel routines

     PAW routines
     PAW_pot      :     22.75s CPU     22.80s WALL (     201 calls)

     PWSCF        :  34m51.08s CPU  35m41.40s WALL


   This run was terminated on:  18:20:27  10Apr2025            

=------------------------------------------------------------------------------=
   JOB DONE.
=------------------------------------------------------------------------------=
Note: The following floating-point exceptions are signalling: IEEE_DENORMAL
Note: The following floating-point exceptions are signalling: IEEE_DENORMAL
Note: The following floating-point exceptions are signalling: IEEE_DENORMAL
