--------------------------------------------------------------------------
WARNING: There was an error initializing an OpenFabrics device.

  Local host:   ga00
  Local device: mlx5_0
--------------------------------------------------------------------------

     Program PWSCF v.7.3.1 starts on 14Apr2025 at  0:30: 5 

     This program is part of the open-source Quantum ESPRESSO suite
     for quantum simulation of materials; please cite
         "P. Giannozzi et al., J. Phys.:Condens. Matter 21 395502 (2009);
         "P. Giannozzi et al., J. Phys.:Condens. Matter 29 465901 (2017);
         "P. Giannozzi et al., J. Chem. Phys. 152 154105 (2020);
          URL http://www.quantum-espresso.org", 
     in publications or presentations arising from this work. More details at
     http://www.quantum-espresso.org/quote

     Parallel version (MPI), running on    32 processors

     MPI processes distributed on     1 nodes
     30881 MiB available memory on the printing compute node when the environment starts

     Waiting for input...
     Reading input from standard input

     Current dimensions of program PWSCF are:
     Max number of different atomic species (ntypx) = 10
     Max number of k-points (npk) =  40000
     Max angular momentum in pseudopotentials (lmaxx) =  4
     Message from routine setup:
     no reason to have ecutrho>4*ecutwfc

     R & G space division:  proc/nbgrp/npool/nimage =      32
     Subspace diagonalization in iterative solution of the eigenvalue problem:
     one sub-group per band group will be used
     custom distributed-memory algorithm (size of sub-group:  3*  3 procs)


     Parallelization info
     --------------------
     sticks:   dense  smooth     PW     G-vecs:    dense   smooth      PW
     Min        1377     688    172               187910    66438    8304
     Max        1378     689    173               187912    66442    8306
     Sum       44077   22039   5507              6013149  2126099  265753

     Using Slab Decomposition



     bravais-lattice index     =            0
     lattice parameter (alat)  =      30.3068  a.u.
     unit-cell volume          =   21992.9985 (a.u.)^3
     number of atoms/cell      =          132
     number of atomic types    =            5
     number of electrons       =       568.00
     number of Kohn-Sham states=          341
     kinetic-energy cutoff     =      80.0000  Ry
     charge density cutoff     =     640.0000  Ry
     scf convergence threshold =      1.0E-08
     mixing beta               =       0.2000
     number of iterations used =            8  plain     mixing
     Exchange-correlation=  SLA  PW   PBX  PBC
                           (   1   4   3   4   0   0   0)

     celldm(1)=  30.306823  celldm(2)=   0.000000  celldm(3)=   0.000000
     celldm(4)=   0.000000  celldm(5)=   0.000000  celldm(6)=   0.000000

     crystal axes: (cart. coord. in units of alat)
               a(1) = (   0.999970  -0.004119   0.006591 )  
               a(2) = (  -0.381917   0.943796  -0.000088 )  
               a(3) = (  -0.303567  -0.467633   0.835329 )  

     reciprocal axes: (cart. coord. in units 2 pi/alat)
               b(1) = (  0.997814  0.403831  0.588688 )  
               b(2) = (  0.000454  1.059790  0.593456 )  
               b(3) = ( -0.007873 -0.003075  1.192552 )  


     PseudoPot. # 1 for Ti read from file:
     /home/yongsang/Research/PSID_server_room/qe/[00]QE/qepseudo/DavideCeresoli/Ti.pbe-tm-gipaw-semi-dc.UPF
     MD5 check sum: 0d5e5be629ad81857689d77ece9f3b93
     Pseudo is Norm-conserving, Zval = 12.0
     Generated by new atomic code, or converted to UPF format
     Using radial grid of 1571 points,  2 beta functions with: 
                l(1) =   0
                l(2) =   1

     PseudoPot. # 2 for N  read from file:
     /home/yongsang/Research/PSID_server_room/qe/[00]QE/qepseudo/DavideCeresoli/N.pbe-tm-gipaw.UPF
     MD5 check sum: df8943e789315a92e2ce8ab49e62f5cb
     Pseudo is Norm-conserving, Zval =  5.0
     Generated by new atomic code, or converted to UPF format
     Using radial grid of 1085 points,  1 beta functions with: 
                l(1) =   0

     PseudoPot. # 3 for C  read from file:
     /home/yongsang/Research/PSID_server_room/qe/[00]QE/qepseudo/DavideCeresoli/C.pbe-tm-gipaw.UPF
     MD5 check sum: 6e4a9b9bc4429ee737bc22471ffa2923
     Pseudo is Norm-conserving, Zval =  4.0
     Generated by new atomic code, or converted to UPF format
     Using radial grid of 1073 points,  1 beta functions with: 
                l(1) =   0

     PseudoPot. # 4 for H  read from file:
     /home/yongsang/Research/PSID_server_room/qe/[00]QE/qepseudo/DavideCeresoli/H.pbe-tm-gipaw.UPF
     MD5 check sum: 39a9a69d8410949353303b9fcad9eee2
     Pseudo is Norm-conserving, Zval =  1.0
     Generated by new atomic code, or converted to UPF format
     Using radial grid of  929 points,  0 beta functions with: 

     PseudoPot. # 5 for O  read from file:
     /home/yongsang/Research/PSID_server_room/qe/[00]QE/qepseudo/DavideCeresoli/O.pbe-tm-gipaw.UPF
     MD5 check sum: 12b6f10dd62b8d732352127d12073df4
     Pseudo is Norm-conserving, Zval =  6.0
     Generated by new atomic code, or converted to UPF format
     Using radial grid of 1095 points,  1 beta functions with: 
                l(1) =   0

     atomic species   valence    mass     pseudopotential
     Ti               12.00    47.86700     Ti( 1.00)
     N                 5.00    14.00674     N ( 1.00)
     C                 4.00    12.01070     C ( 1.00)
     H                 1.00     1.00794     H ( 1.00)
     O                 6.00    15.99940     O ( 1.00)

     No symmetry found


                                    s                        frac. trans.

      isym =  1     identity                                     

 cryst.   s( 1) = (     1          0          0      )
                  (     0          1          0      )
                  (     0          0          1      )

 cart.    s( 1) = (  1.0000000  0.0000000 -0.0000000 )
                  ( -0.0000000  1.0000000  0.0000000 )
                  (  0.0000000  0.0000000  1.0000000 )


   Cartesian axes

     site n.     atom                  positions (alat units)
         1        Ti     tau(   1) = (  -0.1859674   0.1428679   0.7206433  )
         2        Ti     tau(   2) = (   0.5071897   0.3350719   0.1197776  )
         3        Ti     tau(   3) = (   0.0990385  -0.0616158   0.6021539  )
         4        Ti     tau(   4) = (   0.2198080   0.5412496   0.2374001  )
         5        Ti     tau(   5) = (   0.1158692   0.5980518   0.1151075  )
         6        Ti     tau(   6) = (   0.1919007  -0.1329815   0.7250710  )
         7        Ti     tau(   7) = (  -0.0947695   0.0639406   0.6014652  )
         8        Ti     tau(   8) = (   0.4018196   0.4017223   0.2351730  )
         9        H      tau(   9) = (   0.2294082   0.1045468   0.4473080  )
        10        H      tau(  10) = (  -0.0001747  -0.2480404   0.4610804  )
        11        H      tau(  11) = (   0.3223125   0.7171067   0.3791185  )
        12        H      tau(  12) = (  -0.1853175   0.3929614   0.7102917  )
        13        H      tau(  13) = (   0.4992199   0.0805099   0.1375539  )
        14        H      tau(  14) = (  -0.4210329   0.0456978   0.6996463  )
        15        H      tau(  15) = (   0.7372510   0.4284627   0.1319447  )
        16        H      tau(  16) = (   0.2027059  -0.3942156   0.7053155  )
        17        H      tau(  17) = (  -0.1277265   0.5116009   0.1319113  )
        18        H      tau(  18) = (   0.3013667   0.2250810   0.3779565  )
        19        H      tau(  19) = (   0.0051999   0.2498799   0.4642636  )
        20        H      tau(  20) = (  -0.2276641  -0.1067050   0.4532022  )
        21        H      tau(  21) = (   0.1741803   0.5113535  -0.0041785  )
        22        H      tau(  22) = (   0.4409118   0.4265076   0.0068687  )
        23        H      tau(  23) = (   0.0291012   0.0438920   0.6978051  )
        24        H      tau(  24) = (   0.2802394   0.4335570   0.1389800  )
        25        H      tau(  25) = (   0.2297731  -0.1457287   0.3854905  )
        26        H      tau(  26) = (   0.0862984   0.6141191   0.4561410  )
        27        H      tau(  27) = (  -0.3737079   0.2588403   0.5698472  )
        28        H      tau(  28) = (   0.6851404   0.2137952   0.2754880  )
        29        H      tau(  29) = (  -0.2197774   0.1555631   0.3762326  )
        30        H      tau(  30) = (  -0.0676195   0.7323427   0.2712187  )
        31        H      tau(  31) = (   0.0051860   0.3883725   0.4109361  )
        32        H      tau(  32) = (   0.0938410   0.4345100   0.3657451  )
        33        H      tau(  33) = (   0.1061202   0.7990162   0.1638885  )
        34        H      tau(  34) = (   0.4926919  -0.0467637   0.2130443  )
        35        H      tau(  35) = (   0.4691259  -0.0216758   0.6296367  )
        36        H      tau(  36) = (   0.3837026  -0.0710007   0.6779539  )
        37        H      tau(  37) = (   0.6234873   0.5606456   0.3990157  )
        38        H      tau(  38) = (   0.5364873   0.5159864   0.3493208  )
        39        H      tau(  39) = (   0.5059028   0.3317706   0.5396635  )
        40        H      tau(  40) = (   0.4763725   0.3500639   0.4354801  )
        41        H      tau(  41) = (   0.4391846  -0.3083157   0.5989346  )
        42        H      tau(  42) = (   0.3568722  -0.2450793   0.6343809  )
        43        C      tau(  43) = (   0.5496401   0.3042342   0.2973472  )
        44        C      tau(  44) = (  -0.2368059   0.1683414   0.5447962  )
        45        C      tau(  45) = (   0.2472878  -0.1593586   0.5480405  )
        46        C      tau(  46) = (   0.0665141   0.6300931   0.2919533  )
        47        C      tau(  47) = (   0.6018436   0.2689442   0.3642395  )
        48        C      tau(  48) = (  -0.2921893   0.2044268   0.4792741  )
        49        C      tau(  49) = (   0.3003398  -0.2000865   0.4848933  )
        50        C      tau(  50) = (   0.0143320   0.6694062   0.3582173  )
        51        C      tau(  51) = (   0.5831580   0.2810318   0.4507775  )
        52        C      tau(  52) = (  -0.2743723   0.1917072   0.3940968  )
        53        C      tau(  53) = (   0.3686335  -0.2533410   0.5069687  )
        54        C      tau(  54) = (  -0.0532002   0.7214373   0.3366160  )
        55        C      tau(  55) = (   0.0335679   0.6544560   0.4413477  )
        56        C      tau(  56) = (   0.2823312  -0.1863088   0.3999139  )
        57        C      tau(  57) = (   0.6728406   0.2221097   0.3417725  )
        58        C      tau(  58) = (  -0.3616379   0.2501163   0.5034768  )
        59        C      tau(  59) = (   0.1954416   0.3061387   0.3834166  )
        60        C      tau(  60) = (   0.1129330   0.1713896   0.4590804  )
        61        C      tau(  61) = (   0.4306028   0.6390604   0.3781878  )
        62        C      tau(  62) = (  -0.1097639  -0.1717556   0.4611018  )
        63        C      tau(  63) = (   0.5038210   0.0847932   0.0043896  )
        64        C      tau(  64) = (   0.1131349   0.8539304   0.0080925  )
        65        C      tau(  65) = (   0.7334034   0.4235904  -0.0012979  )
        66        C      tau(  66) = (  -0.1159297   0.5168986  -0.0023856  )
        67        C      tau(  67) = (   0.2413586   0.3731092   0.3400450  )
        68        C      tau(  68) = (   0.0689379   0.1004912   0.5006634  )
        69        C      tau(  69) = (   0.3871293   0.5743148   0.3298842  )
        70        C      tau(  70) = (  -0.0683906  -0.1044037   0.5101515  )
        71        C      tau(  71) = (   0.5077480   0.1777161   0.0037211  )
        72        C      tau(  72) = (   0.1104478   0.7621845   0.0054619  )
        73        C      tau(  73) = (   0.6532727   0.3784957   0.0004330  )
        74        C      tau(  74) = (  -0.0343948   0.5619900  -0.0000890  )
        75        C      tau(  75) = (   0.1101193   0.3150380   0.4082311  )
        76        C      tau(  76) = (   0.1972468   0.1631667   0.4357521  )
        77        C      tau(  77) = (   0.3870394   0.7124442   0.3992116  )
        78        C      tau(  78) = (  -0.0650200  -0.2431037   0.4411591  )
        79        C      tau(  79) = (   0.4993944   0.0436598   0.0804012  )
        80        C      tau(  80) = (  -0.1857325   0.4299271   0.7672849  )
        81        C      tau(  81) = (   0.7699254   0.4465539   0.0752319  )
        82        C      tau(  82) = (  -0.4538890   0.0278198   0.7564813  )
        83        C      tau(  83) = (   0.5159807   0.6302218   0.4029281  )
        84        C      tau(  84) = (  -0.1938505  -0.1632034   0.4368823  )
        85        C      tau(  85) = (   0.2366798   0.2299695   0.3980623  )
        86        C      tau(  86) = (   0.0704387   0.2455552   0.4454297  )
        87        C      tau(  87) = (   0.4705295  -0.0215331   0.7577448  )
        88        C      tau(  88) = (  -0.1558514   0.4944156   0.0726134  )
        89        C      tau(  89) = (   0.2000389  -0.4277843   0.7642206  )
        90        C      tau(  90) = (   0.1123524   0.8995436   0.0848353  )
        91        N      tau(  91) = (   0.0669003   0.3873255   0.3984945  )
        92        N      tau(  92) = (   0.1063966   0.8622781   0.1606285  )
        93        N      tau(  93) = (   0.4403549  -0.0428089   0.6815006  )
        94        N      tau(  94) = (   0.5618847   0.5610625   0.3859605  )
        95        N      tau(  95) = (   0.5153762   0.3238813   0.4779295  )
        96        N      tau(  96) = (   0.3901217  -0.2707127   0.5870225  )
        97        O      tau(  97) = (   0.4863948   0.3492705   0.3176163  )
        98        O      tau(  98) = (  -0.1776372   0.1205655   0.5216452  )
        99        O      tau(  99) = (   0.2646772  -0.1707008   0.6256787  )
       100        O      tau( 100) = (   0.0463233   0.6413765   0.2160818  )
       101        O      tau( 101) = (   0.1294639   0.5867720   0.3152680  )
       102        O      tau( 102) = (   0.1862988  -0.1139323   0.5243430  )
       103        O      tau( 103) = (   0.5688796   0.2894778   0.2212447  )
       104        O      tau( 104) = (  -0.2516780   0.1870484   0.6208294  )
       105        O      tau( 105) = (   0.4030541   0.3106987   0.1706455  )
       106        O      tau( 106) = (  -0.0866001   0.1590589   0.6656074  )
       107        O      tau( 107) = (   0.4913438   0.4360140   0.1675311  )
       108        O      tau( 108) = (  -0.1794617   0.0376279   0.6740982  )
       109        O      tau( 109) = (   0.0993890  -0.1589238   0.6649654  )
       110        O      tau( 110) = (   0.2108517   0.6334647   0.1732604  )
       111        O      tau( 111) = (   0.1764522  -0.0275475   0.6798930  )
       112        O      tau( 112) = (   0.1396019   0.4982094   0.1621570  )
       113        O      tau( 113) = (   0.3179858   0.3602778   0.3214464  )
       114        O      tau( 114) = (  -0.0088990   0.1071671   0.5136644  )
       115        O      tau( 115) = (   0.4253361   0.5074085   0.3106555  )
       116        O      tau( 116) = (  -0.1126048  -0.0429190   0.5335601  )
       117        O      tau( 117) = (   0.2027800  -0.2528639   0.7688080  )
       118        O      tau( 118) = (   0.1044280   0.7211243   0.0733543  )
       119        O      tau( 119) = (   0.3147181  -0.1084643   0.7667072  )
       120        O      tau( 120) = (  -0.0007768   0.5719196   0.0714544  )
       121        O      tau( 121) = (   0.3112449   0.5873631   0.3079563  )
       122        O      tau( 122) = (   0.0086752  -0.1119165   0.5268601  )
       123        O      tau( 123) = (   0.2033478   0.4407822   0.3220576  )
       124        O      tau( 124) = (   0.1128742   0.0374855   0.5212056  )
       125        O      tau( 125) = (   0.6213576   0.3604365   0.0713368  )
       126        O      tau( 126) = (  -0.3065306   0.1192234   0.7671443  )
       127        O      tau( 127) = (   0.5119709   0.2152885   0.0731665  )
       128        O      tau( 128) = (  -0.1887910   0.2585271   0.7697979  )
       129        O      tau( 129) = (   0.3080306   0.4664638   0.1816965  )
       130        O      tau( 130) = (   0.0055231   0.0069919   0.6558123  )
       131        O      tau( 131) = (   0.4587384   0.3685887   0.0053332  )
       132        O      tau( 132) = (   0.1589203   0.5699072  -0.0000706  )

     --------------------------------------------
     DFT-D3 Dispersion Correction (3-body terms):
     --------------------------------------------
       Reference C6 values for interpolation: 

         atom   Coordination number   C6
         H          0.912             6.05
         H          0.000            15.18
         C          0.000            98.23
         C          0.987            86.49
         C          1.998            58.72
         C          2.999            51.56
         C          3.984            36.41
         N          0.000            50.54
         N          0.994            44.25
         N          2.014            39.35
         N          2.990            31.16
         O          0.000            31.01
         O          0.993            25.63
         O          1.989            20.74
         Ti         0.000          2723.84
         Ti         1.830           604.00
         Ti         3.868           643.18

       Values used:

         atom   Coordination number  R0_AB[au]  C6      C8
         Ti         7.303            3.557    643.18  76289.64
         Ti         7.313            3.557    643.18  76289.64
         Ti         7.301            3.557    643.18  76289.64
         Ti         7.289            3.557    643.18  76289.64
         Ti         7.286            3.557    643.18  76289.64
         Ti         7.264            3.557    643.18  76289.64
         Ti         7.302            3.557    643.18  76289.64
         Ti         7.275            3.557    643.18  76289.64
         H          1.004            2.062      6.18     74.67
         H          1.005            2.062      6.18     74.67
         H          1.005            2.062      6.18     74.66
         H          1.005            2.062      6.18     74.66
         H          1.005            2.062      6.18     74.66
         H          1.005            2.062      6.18     74.67
         H          1.005            2.062      6.18     74.66
         H          1.004            2.062      6.18     74.67
         H          1.004            2.062      6.18     74.67
         H          1.005            2.062      6.18     74.66
         H          1.005            2.062      6.18     74.67
         H          1.004            2.062      6.18     74.67
         H          1.082            2.062      6.12     74.03
         H          1.080            2.062      6.13     74.04
         H          1.084            2.062      6.12     74.02
         H          1.086            2.062      6.12     74.00
         H          1.005            2.062      6.18     74.66
         H          1.005            2.062      6.18     74.67
         H          1.005            2.062      6.18     74.67
         H          1.005            2.062      6.18     74.66
         H          1.004            2.062      6.18     74.68
         H          1.004            2.062      6.18     74.68
         H          1.007            2.062      6.17     74.65
         H          1.014            2.062      6.17     74.57
         H          1.014            2.062      6.17     74.57
         H          1.007            2.062      6.18     74.65
         H          1.007            2.062      6.17     74.65
         H          1.014            2.062      6.17     74.57
         H          1.007            2.062      6.18     74.65
         H          1.014            2.062      6.17     74.57
         H          1.007            2.062      6.18     74.65
         H          1.013            2.062      6.17     74.58
         H          1.007            2.062      6.18     74.65
         H          1.013            2.062      6.17     74.58
         C          3.334            2.750     47.85   1383.97
         C          3.357            2.750     47.34   1369.02
         C          3.332            2.750     47.90   1385.28
         C          3.341            2.750     47.69   1379.41
         C          3.208            2.750     49.97   1445.17
         C          3.187            2.750     50.20   1451.82
         C          3.207            2.750     49.98   1445.37
         C          3.186            2.750     50.20   1451.96
         C          3.163            2.750     50.42   1458.34
         C          3.155            2.750     50.49   1460.36
         C          3.162            2.750     50.43   1458.54
         C          3.155            2.750     50.49   1460.34
         C          3.212            2.750     49.92   1443.68
         C          3.172            2.750     50.34   1455.89
         C          3.173            2.750     50.34   1455.83
         C          3.211            2.750     49.93   1443.97
         C          3.210            2.750     49.94   1444.32
         C          3.188            2.750     50.18   1451.31
         C          3.210            2.750     49.94   1444.31
         C          3.189            2.750     50.18   1451.25
         C          3.189            2.750     50.17   1451.03
         C          3.211            2.750     49.93   1443.93
         C          3.210            2.750     49.94   1444.40
         C          3.189            2.750     50.18   1451.16
         C          3.218            2.750     49.84   1441.54
         C          3.227            2.750     49.73   1438.31
         C          3.221            2.750     49.80   1440.37
         C          3.229            2.750     49.70   1437.48
         C          3.226            2.750     49.75   1438.77
         C          3.223            2.750     49.78   1439.67
         C          3.222            2.750     49.80   1440.28
         C          3.229            2.750     49.71   1437.71
         C          3.164            2.750     50.41   1458.05
         C          3.158            2.750     50.47   1459.67
         C          3.173            2.750     50.33   1455.73
         C          3.210            2.750     49.94   1444.31
         C          3.213            2.750     49.91   1443.47
         C          3.175            2.750     50.31   1455.15
         C          3.174            2.750     50.32   1455.33
         C          3.210            2.750     49.95   1444.51
         C          3.165            2.750     50.40   1457.74
         C          3.157            2.750     50.47   1459.77
         C          3.174            2.750     50.32   1455.48
         C          3.209            2.750     49.96   1444.82
         C          3.164            2.750     50.41   1458.09
         C          3.158            2.750     50.47   1459.69
         C          3.157            2.750     50.48   1459.93
         C          3.164            2.750     50.42   1458.15
         N          3.092            2.478     31.24    689.17
         N          3.092            2.478     31.24    689.16
         N          3.092            2.478     31.24    689.16
         N          3.092            2.478     31.24    689.16
         N          3.092            2.478     31.24    689.16
         N          3.092            2.478     31.24    689.17
         O          2.047            2.345     20.79    419.64
         O          2.041            2.345     20.80    419.70
         O          2.050            2.345     20.79    419.62
         O          2.029            2.345     20.80    419.81
         O          2.046            2.345     20.80    419.66
         O          2.041            2.345     20.80    419.70
         O          2.045            2.345     20.80    419.66
         O          2.046            2.345     20.80    419.66
         O          2.009            2.345     20.81    420.02
         O          2.012            2.345     20.81    419.99
         O          2.011            2.345     20.81    420.00
         O          2.012            2.345     20.81    419.99
         O          2.013            2.345     20.81    419.98
         O          2.012            2.345     20.81    419.98
         O          2.010            2.345     20.81    420.01
         O          2.009            2.345     20.81    420.02
         O          2.033            2.345     20.80    419.77
         O          2.014            2.345     20.81    419.96
         O          2.010            2.345     20.81    420.00
         O          2.028            2.345     20.80    419.82
         O          2.027            2.345     20.80    419.83
         O          2.022            2.345     20.81    419.88
         O          2.010            2.345     20.81    420.01
         O          2.032            2.345     20.80    419.78
         O          2.046            2.345     20.80    419.66
         O          2.031            2.345     20.80    419.79
         O          2.006            2.345     20.82    420.06
         O          2.023            2.345     20.81    419.87
         O          2.036            2.345     20.80    419.75
         O          2.005            2.345     20.82    420.06
         O          2.026            2.345     20.80    419.84
         O          2.041            2.345     20.80    419.70
         O          2.945            2.345     20.74    418.58
         O          2.941            2.345     20.74    418.58
         O          2.943            2.345     20.74    418.58
         O          2.944            2.345     20.74    418.58

         Molecular C6 ( Ry / a.u.^6 ) =    660547.30


   Crystallographic axes

     site n.     atom                  positions (cryst. coord.)
         1        Ti     tau(   1) = (  0.2963677  0.5789956  0.8604291  )
         2        Ti     tau(   2) = (  0.7119048  0.4264191  0.1378178  )
         3        Ti     tau(   3) = (  0.4284205  0.2920969  0.7175093  )
         4        Ti     tau(   4) = (  0.5776552  0.7145975  0.2797172  )
         5        Ti     tau(   5) = (  0.4248900  0.7021734  0.1345206  )
         6        Ti     tau(   6) = (  0.5646198  0.2894524  0.8635826  )
         7        Ti     tau(   7) = (  0.2853342  0.4246636  0.7178278  )
         8        Ti     tau(   8) = (  0.7016124  0.5654887  0.2760573  )
         9        H      tau(   9) = (  0.5344507  0.3763595  0.5313103  )
        10        H      tau(  10) = (  0.1710919  0.0107600  0.5506262  )
        11        H      tau(  11) = (  0.8343800  0.9851193  0.4473760  )
        12        H      tau(  12) = (  0.3919177  0.8378993  0.8473102  )
        13        H      tau(  13) = (  0.6116171  0.1671825  0.1598623  )
        14        H      tau(  14) = (  0.0102152  0.4634480  0.8375384  )
        15        H      tau(  15) = (  0.9863398  0.5327189  0.1502293  )
        16        H      tau(  16) = (  0.4582772  0.0008798  0.8407413  )
        17        H      tau(  17) = (  0.1568074  0.6204153  0.1567435  )
        18        H      tau(  18) = (  0.6141009  0.4629761  0.4476680  )
        19        H      tau(  19) = (  0.3794041  0.5403426  0.5528490  )
        20        H      tau(  20) = ( -0.0034623  0.1557672  0.5425874  )
        21        H      tau(  21) = (  0.3778399  0.5395268 -0.0079266  )
        22        H      tau(  22) = (  0.6162282  0.4562852  0.0034087  )
        23        H      tau(  23) = (  0.4575520  0.4606461  0.8318045  )
        24        H      tau(  24) = (  0.5365262  0.5420853  0.1622015  )
        25        H      tau(  25) = (  0.3973548  0.0744341  0.4583565  )
        26        H      tau(  26) = (  0.6026346  0.9215763  0.5414041  )
        27        H      tau(  27) = (  0.0670990  0.6123258  0.6817184  )
        28        H      tau(  28) = (  0.9321561  0.3903794  0.3224824  )
        29        H      tau(  29) = (  0.0650078  0.3880419  0.4499287  )
        30        H      tau(  30) = (  0.3879340  0.9370554  0.3217229  )
        31        H      tau(  31) = (  0.4039245  0.6554682  0.4888275  )
        32        H      tau(  32) = (  0.4844141  0.6775857  0.4340951  )
        33        H      tau(  33) = (  0.5250346  0.9440985  0.1921533  )
        34        H      tau(  34) = (  0.5981467  0.0770965  0.2503313  )
        35        H      tau(  35) = (  0.8300065  0.3509029  0.7472476  )
        36        H      tau(  36) = (  0.7532948  0.3272642  0.8056925  )
        37        H      tau(  37) = (  1.0834258  0.8312482  0.4692145  )
        38        H      tau(  38) = (  0.9493264  0.7543876  0.4107729  )
        39        H      tau(  39) = (  0.9564693  0.6721036  0.6385736  )
        40        H      tau(  40) = (  0.8730595  0.6296490  0.5145058  )
        41        H      tau(  41) = (  0.6663028  0.0288908  0.7117508  )
        42        H      tau(  42) = (  0.6305739  0.1169065  0.7544760  )
        43        C      tau(  43) = (  0.8463423  0.4991366  0.3493393  )
        44        C      tau(  44) = (  0.1524083  0.5016115  0.6510442  )
        45        C      tau(  45) = (  0.5050182  0.1564635  0.6521097  )
        46        C      tau(  46) = (  0.4926890  0.8410582  0.3457084  )
        47        C      tau(  47) = (  0.9235591  0.5014580  0.4288094  )
        48        C      tau(  48) = (  0.0731462  0.5009449  0.5732308  )
        49        C      tau(  49) = (  0.5043330  0.0758495  0.5765109  )
        50        C      tau(  50) = (  0.4955056  0.9220229  0.4250215  )
        51        C      tau(  51) = (  0.9607397  0.5656163  0.5321203  )
        52        C      tau(  52) = (  0.0356449  0.4369239  0.4715514  )
        53        C      tau(  53) = (  0.5639672  0.0325427  0.6024631  )
        54        C      tau(  54) = (  0.4364163  0.9643148  0.3996325  )
        55        C      tau(  55) = (  0.5576000  0.9555218  0.5240533  )
        56        C      tau(  56) = (  0.4419013  0.0400112  0.4752681  )
        57        C      tau(  57) = (  0.9622617  0.4385223  0.4016014  )
        58        C      tau(  58) = (  0.0365480  0.5636978  0.6025000  )
        59        C      tau(  59) = (  0.5443553  0.5520725  0.4547641  )
        60        C      tau(  60) = (  0.4521536  0.4541323  0.5460609  )
        61        C      tau(  61) = (  0.9103681  0.9019034  0.4456536  )
        62        C      tau(  62) = (  0.0925610  0.0915688  0.5512799  )
        63        C      tau(  63) = (  0.5395457  0.0926969  0.0010077  )
        64        C      tau(  64) = (  0.4624947  0.9098412  0.0061345  )
        65        C      tau(  65) = (  0.9020947  0.4484799 -0.0086241  )
        66        C      tau(  66) = (  0.0916589  0.5463358 -0.0035216  )
        67        C      tau(  67) = (  0.5916843  0.5973290  0.4024739  )
        68        C      tau(  68) = (  0.4041031  0.4036525  0.5962152  )
        69        C      tau(  69) = (  0.8124077  0.8046010  0.3885904  )
        70        C      tau(  70) = (  0.1899177  0.1920753  0.6092414  )
        71        C      tau(  71) = (  0.5805957  0.1907808 -0.0001061  )
        72        C      tau(  72) = (  0.4212151  0.8110474  0.0033006  )
        73        C      tau(  73) = (  0.8049475  0.4016798 -0.0057904  )
        74        C      tau(  74) = (  0.1925768  0.5955231 -0.0015633  )
        75        C      tau(  75) = (  0.4774213  0.5761915  0.4850010  )
        76        C      tau(  76) = (  0.5192293  0.4316117  0.5176022  )
        77        C      tau(  77) = (  0.9089111  0.9921318  0.4708428  )
        78        C      tau(  78) = (  0.0966546  0.0041400  0.5273643  )
        79        C      tau(  79) = (  0.5632650  0.0942117  0.0918167  )
        80        C      tau(  80) = (  0.4399828  0.9108980  0.9151671  )
        81        C      tau(  81) = (  0.9928624  0.5182501  0.0822836  )
        82        C      tau(  82) = (  0.0036693  0.4782153  0.9056307  )
        83        C      tau(  83) = (  1.0065544  0.9072574  0.4745126  )
        84        C      tau(  84) = ( -0.0021458  0.0862209  0.5230326  )
        85        C      tau(  85) = (  0.5633656  0.4800595  0.4721395  )
        86        C      tau(  86) = (  0.4316665  0.5246119  0.5298883  )
        87        C      tau(  87) = (  0.9068803  0.4270813  0.9000116  )
        88        C      tau(  88) = (  0.0868961  0.5669989  0.0863020  )
        89        C      tau(  89) = (  0.4767367  0.0002604  0.9111129  )
        90        C      tau(  90) = (  0.5253116  1.0037247  0.0975201  )
        91        N      tau(  91) = (  0.4577569  0.6470031  0.4735076  )
        92        N      tau(  92) = (  0.5489383  1.0092082  0.1880689  )
        93        N      tau(  93) = (  0.8232959  0.3592721  0.8093895  )
        94        N      tau(  94) = (  1.0144408  0.8239145  0.4541292  )
        95        N      tau(  95) = (  0.9263941  0.6271105  0.5649024  )
        96        N      tau(  96) = (  0.6255199  0.0616504  0.6978156  )
        97        O      tau(  97) = (  0.8133544  0.5588657  0.3738707  )
        98        O      tau(  98) = (  0.1785255  0.4372669  0.6231166  )
        99        O      tau(  99) = (  0.5634939  0.1905259  0.7445952  )
       100        O      tau( 100) = (  0.4324342  0.8079806  0.2553519  )
       101        O      tau( 101) = (  0.5517319  0.8090117  0.3731500  )
       102        O      tau( 102) = (  0.4485566  0.1905147  0.6241897  )
       103        O      tau( 103) = (  0.8147799  0.4383431  0.2584770  )
       104        O      tau( 104) = (  0.1898829  0.5665527  0.7417773  )
       105        O      tau( 105) = (  0.6280995  0.4307292  0.1993751  )
       106        O      tau( 106) = (  0.3696572  0.5635384  0.7939639  )
       107        O      tau( 107) = (  0.7649690  0.5617289  0.1945807  )
       108        O      tau( 108) = (  0.2329595  0.4398437  0.8051940  )
       109        O      tau( 109) = (  0.4264506  0.2262469  0.7927117  )
       110        O      tau( 110) = (  0.5681995  0.7742579  0.2030143  )
       111        O      tau( 111) = (  0.5651867  0.3743721  0.8095030  )
       112        O      tau( 112) = (  0.4359488  0.6242939  0.1907496  )
       113        O      tau( 113) = (  0.6520135  0.5727276  0.3797303  )
       114        O      tau( 114) = (  0.3367859  0.4184078  0.6123118  )
       115        O      tau( 115) = (  0.8121924  0.7223002  0.3655640  )
       116        O      tau( 116) = (  0.1844098  0.2711081  0.6373164  )
       117        O      tau( 117) = (  0.5528106  0.1883630  0.9160242  )
       118        O      tau( 118) = (  0.4385946  0.8078205  0.0844394  )
       119        O      tau( 119) = (  0.7215802  0.3402005  0.9121937  )
       120        O      tau( 120) = (  0.2722479  0.6485195  0.0834607  )
       121        O      tau( 121) = (  0.7290498  0.8053816  0.3629975  )
       122        O      tau( 122) = (  0.2736171  0.1940642  0.6285837  )
       123        O      tau( 123) = (  0.5704960  0.6583561  0.3811142  )
       124        O      tau( 124) = (  0.4345927  0.3490906  0.6205607  )
       125        O      tau( 125) = (  0.8075495  0.4246046  0.0790728  )
       126        O      tau( 126) = (  0.1938943  0.5814789  0.9169058  )
       127        O      tau( 127) = (  0.6408640  0.2718144  0.0825623  )
       128        O      tau( 128) = (  0.3691937  0.7307399  0.9187150  )
       129        O      tau( 129) = (  0.6026921  0.6023226  0.2128232  )
       130        O      tau( 130) = (  0.3944034  0.3966081  0.7820250  )
       131        O      tau( 131) = (  0.6097225  0.3940001  0.0016153  )
       132        O      tau( 132) = (  0.3886773  0.6040125 -0.0030876  )

     number of k points=     1  Gaussian smearing, width (Ry)=  0.0500
                       cart. coord. in units 2pi/alat
        k(    1) = (   0.0000000   0.0000000   0.0000000), wk =   2.0000000

                       cryst. coord.
        k(    1) = (   0.0000000   0.0000000   0.0000000), wk =   2.0000000

     Dense  grid:  6013149 G-vectors     FFT dimensions: ( 250, 250, 250)

     Smooth grid:  2126099 G-vectors     FFT dimensions: ( 180, 180, 180)

     Dynamical RAM for                 wfc:      43.21 MB

     Dynamical RAM for     wfc (w. buffer):      43.21 MB

     Dynamical RAM for           str. fact:      14.34 MB

     Dynamical RAM for           local pot:       0.00 MB

     Dynamical RAM for          nlocal pot:      15.46 MB

     Dynamical RAM for                qrad:       0.87 MB

     Dynamical RAM for          rho,v,vnew:      20.05 MB

     Dynamical RAM for               rhoin:       6.68 MB

     Dynamical RAM for            rho*nmix:      45.88 MB

     Dynamical RAM for           G-vectors:      11.26 MB

     Dynamical RAM for          h,s,v(r/c):       2.36 MB

     Dynamical RAM for          <psi|beta>:       0.63 MB

     Dynamical RAM for                 psi:      86.42 MB

     Dynamical RAM for                hpsi:      86.42 MB

     Dynamical RAM for      wfcinit/wfcrot:     142.97 MB

     Estimated static dynamical RAM per process >     148.14 MB

     Estimated max dynamical RAM per process >     369.84 MB

     Estimated total dynamical RAM >      11.56 GB

     Initial potential from superposition of free atoms

     starting charge     485.3980, renormalised to     568.0000

     negative rho (up, down):  7.286E-06 0.000E+00
[ga00:3363994] 31 more processes have sent help message help-mpi-btl-openib.txt / error in device init
[ga00:3363994] Set MCA parameter "orte_base_help_aggregate" to 0 to see all help / error messages
     Starting wfcs are  538 randomized atomic wfcs

     total cpu time spent up to now is       15.2 secs

     Self-consistent Calculation

     iteration #  1     ecut=    80.00 Ry     beta= 0.20
     Davidson diagonalization with overlap

---- Real-time Memory Report at c_bands before calling an iterative solver
           475 MiB given to the printing process from OS
             0 MiB allocation reported by mallinfo(arena+hblkhd)
         25101 MiB available memory on the node where the printing process lives
------------------
     ethr =  1.00E-02,  avg # of iterations =  7.0

     total cpu time spent up to now is       55.4 secs

     total energy              =   -2650.93281999 Ry
     estimated scf accuracy    <     680.88166345 Ry

     iteration #  2     ecut=    80.00 Ry     beta= 0.20
     Davidson diagonalization with overlap

---- Real-time Memory Report at c_bands before calling an iterative solver
           526 MiB given to the printing process from OS
             0 MiB allocation reported by mallinfo(arena+hblkhd)
         24815 MiB available memory on the node where the printing process lives
------------------
     ethr =  1.00E-02,  avg # of iterations =  8.0

     total cpu time spent up to now is       97.7 secs

     total energy              =   -2727.47675546 Ry
     estimated scf accuracy    <     703.72233732 Ry

     iteration #  3     ecut=    80.00 Ry     beta= 0.20
     Davidson diagonalization with overlap

---- Real-time Memory Report at c_bands before calling an iterative solver
           534 MiB given to the printing process from OS
             0 MiB allocation reported by mallinfo(arena+hblkhd)
         24694 MiB available memory on the node where the printing process lives
------------------
     ethr =  1.00E-02,  avg # of iterations =  7.0

     total cpu time spent up to now is      138.4 secs

     total energy              =   -2793.78535813 Ry
     estimated scf accuracy    <      29.43229077 Ry

     iteration #  4     ecut=    80.00 Ry     beta= 0.20
     Davidson diagonalization with overlap

---- Real-time Memory Report at c_bands before calling an iterative solver
           534 MiB given to the printing process from OS
             0 MiB allocation reported by mallinfo(arena+hblkhd)
         24595 MiB available memory on the node where the printing process lives
------------------
     ethr =  5.18E-03,  avg # of iterations =  2.0

     total cpu time spent up to now is      158.2 secs

     total energy              =   -2788.08432052 Ry
     estimated scf accuracy    <      13.12674302 Ry

     iteration #  5     ecut=    80.00 Ry     beta= 0.20
     Davidson diagonalization with overlap

---- Real-time Memory Report at c_bands before calling an iterative solver
           534 MiB given to the printing process from OS
             0 MiB allocation reported by mallinfo(arena+hblkhd)
         24493 MiB available memory on the node where the printing process lives
------------------
     ethr =  2.31E-03,  avg # of iterations = 11.0

     total cpu time spent up to now is      199.9 secs

     total energy              =   -2790.18025877 Ry
     estimated scf accuracy    <      51.13574408 Ry

     iteration #  6     ecut=    80.00 Ry     beta= 0.20
     Davidson diagonalization with overlap

---- Real-time Memory Report at c_bands before calling an iterative solver
           537 MiB given to the printing process from OS
             0 MiB allocation reported by mallinfo(arena+hblkhd)
         24382 MiB available memory on the node where the printing process lives
------------------
     ethr =  2.31E-03,  avg # of iterations =  2.0

     total cpu time spent up to now is      219.8 secs

     total energy              =   -2791.24502057 Ry
     estimated scf accuracy    <       5.15804959 Ry

     iteration #  7     ecut=    80.00 Ry     beta= 0.20
     Davidson diagonalization with overlap

---- Real-time Memory Report at c_bands before calling an iterative solver
           537 MiB given to the printing process from OS
             0 MiB allocation reported by mallinfo(arena+hblkhd)
         24286 MiB available memory on the node where the printing process lives
------------------
     ethr =  9.08E-04,  avg # of iterations =  2.0

     total cpu time spent up to now is      239.9 secs

     total energy              =   -2790.74847403 Ry
     estimated scf accuracy    <       4.06373070 Ry

     iteration #  8     ecut=    80.00 Ry     beta= 0.20
     Davidson diagonalization with overlap

---- Real-time Memory Report at c_bands before calling an iterative solver
           538 MiB given to the printing process from OS
             0 MiB allocation reported by mallinfo(arena+hblkhd)
         24173 MiB available memory on the node where the printing process lives
------------------
     ethr =  7.15E-04,  avg # of iterations =  1.0

     total cpu time spent up to now is      258.0 secs

     total energy              =   -2790.86227569 Ry
     estimated scf accuracy    <       0.77961503 Ry

     iteration #  9     ecut=    80.00 Ry     beta= 0.20
     Davidson diagonalization with overlap

---- Real-time Memory Report at c_bands before calling an iterative solver
           540 MiB given to the printing process from OS
             0 MiB allocation reported by mallinfo(arena+hblkhd)
         24076 MiB available memory on the node where the printing process lives
------------------
     ethr =  1.37E-04,  avg # of iterations = 13.0

     total cpu time spent up to now is      283.1 secs

     total energy              =   -2790.96497839 Ry
     estimated scf accuracy    <       0.21347425 Ry

     iteration # 10     ecut=    80.00 Ry     beta= 0.20
     Davidson diagonalization with overlap

---- Real-time Memory Report at c_bands before calling an iterative solver
           542 MiB given to the printing process from OS
             0 MiB allocation reported by mallinfo(arena+hblkhd)
         23970 MiB available memory on the node where the printing process lives
------------------
     ethr =  3.76E-05,  avg # of iterations =  2.0

     total cpu time spent up to now is      302.9 secs

     total energy              =   -2790.96286894 Ry
     estimated scf accuracy    <       0.06625116 Ry

     iteration # 11     ecut=    80.00 Ry     beta= 0.20
     Davidson diagonalization with overlap

---- Real-time Memory Report at c_bands before calling an iterative solver
           544 MiB given to the printing process from OS
             0 MiB allocation reported by mallinfo(arena+hblkhd)
         23962 MiB available memory on the node where the printing process lives
------------------
     ethr =  1.17E-05,  avg # of iterations = 15.0

     negative rho (up, down):  1.305E-07 0.000E+00

     total cpu time spent up to now is      328.5 secs

     total energy              =   -2790.96928548 Ry
     estimated scf accuracy    <       0.01720485 Ry

     iteration # 12     ecut=    80.00 Ry     beta= 0.20
     Davidson diagonalization with overlap

---- Real-time Memory Report at c_bands before calling an iterative solver
           544 MiB given to the printing process from OS
             0 MiB allocation reported by mallinfo(arena+hblkhd)
         23965 MiB available memory on the node where the printing process lives
------------------
     c_bands:  1 eigenvalues not converged
     ethr =  3.03E-06,  avg # of iterations = 20.0

     negative rho (up, down):  5.723E-07 0.000E+00

     total cpu time spent up to now is      356.2 secs

     total energy              =   -2790.97080972 Ry
     estimated scf accuracy    <       0.01663367 Ry

     iteration # 13     ecut=    80.00 Ry     beta= 0.20
     Davidson diagonalization with overlap

---- Real-time Memory Report at c_bands before calling an iterative solver
           544 MiB given to the printing process from OS
             0 MiB allocation reported by mallinfo(arena+hblkhd)
         23956 MiB available memory on the node where the printing process lives
------------------
     ethr =  2.93E-06,  avg # of iterations =  2.0

     negative rho (up, down):  9.514E-07 0.000E+00

     total cpu time spent up to now is      376.2 secs

     total energy              =   -2790.97048265 Ry
     estimated scf accuracy    <       0.00588197 Ry

     iteration # 14     ecut=    80.00 Ry     beta= 0.20
     Davidson diagonalization with overlap

---- Real-time Memory Report at c_bands before calling an iterative solver
           544 MiB given to the printing process from OS
             0 MiB allocation reported by mallinfo(arena+hblkhd)
         23956 MiB available memory on the node where the printing process lives
------------------
     c_bands:  1 eigenvalues not converged
     ethr =  1.04E-06,  avg # of iterations = 20.0

     negative rho (up, down):  2.335E-06 0.000E+00

     total cpu time spent up to now is      400.2 secs

     total energy              =   -2790.97046958 Ry
     estimated scf accuracy    <       0.00146946 Ry

     iteration # 15     ecut=    80.00 Ry     beta= 0.20
     Davidson diagonalization with overlap

---- Real-time Memory Report at c_bands before calling an iterative solver
           544 MiB given to the printing process from OS
             0 MiB allocation reported by mallinfo(arena+hblkhd)
         23956 MiB available memory on the node where the printing process lives
------------------
     c_bands:  1 eigenvalues not converged
     ethr =  2.59E-07,  avg # of iterations = 20.0

     negative rho (up, down):  2.500E-06 0.000E+00

     total cpu time spent up to now is      425.2 secs

     total energy              =   -2790.97060243 Ry
     estimated scf accuracy    <       0.00027678 Ry

     iteration # 16     ecut=    80.00 Ry     beta= 0.20
     Davidson diagonalization with overlap

---- Real-time Memory Report at c_bands before calling an iterative solver
           545 MiB given to the printing process from OS
             0 MiB allocation reported by mallinfo(arena+hblkhd)
         23951 MiB available memory on the node where the printing process lives
------------------
     ethr =  4.87E-08,  avg # of iterations =  5.0

     negative rho (up, down):  1.574E-06 0.000E+00

     total cpu time spent up to now is      447.4 secs

     total energy              =   -2790.97065568 Ry
     estimated scf accuracy    <       0.00004864 Ry

     iteration # 17     ecut=    80.00 Ry     beta= 0.20
     Davidson diagonalization with overlap

---- Real-time Memory Report at c_bands before calling an iterative solver
           545 MiB given to the printing process from OS
             0 MiB allocation reported by mallinfo(arena+hblkhd)
         23955 MiB available memory on the node where the printing process lives
------------------
     ethr =  8.56E-09,  avg # of iterations =  2.0

     negative rho (up, down):  1.346E-06 0.000E+00

     total cpu time spent up to now is      467.5 secs

     total energy              =   -2790.97065632 Ry
     estimated scf accuracy    <       0.00001849 Ry

     iteration # 18     ecut=    80.00 Ry     beta= 0.20
     Davidson diagonalization with overlap

---- Real-time Memory Report at c_bands before calling an iterative solver
           545 MiB given to the printing process from OS
             0 MiB allocation reported by mallinfo(arena+hblkhd)
         23957 MiB available memory on the node where the printing process lives
------------------
     ethr =  3.25E-09,  avg # of iterations =  3.0

     negative rho (up, down):  1.191E-06 0.000E+00

     total cpu time spent up to now is      488.3 secs

     total energy              =   -2790.97065800 Ry
     estimated scf accuracy    <       0.00000359 Ry

     iteration # 19     ecut=    80.00 Ry     beta= 0.20
     Davidson diagonalization with overlap

---- Real-time Memory Report at c_bands before calling an iterative solver
           545 MiB given to the printing process from OS
             0 MiB allocation reported by mallinfo(arena+hblkhd)
         23950 MiB available memory on the node where the printing process lives
------------------
     ethr =  6.33E-10,  avg # of iterations =  5.0

     negative rho (up, down):  8.618E-07 0.000E+00

     total cpu time spent up to now is      510.0 secs

     total energy              =   -2790.97065828 Ry
     estimated scf accuracy    <       0.00000078 Ry

     iteration # 20     ecut=    80.00 Ry     beta= 0.20
     Davidson diagonalization with overlap

---- Real-time Memory Report at c_bands before calling an iterative solver
           545 MiB given to the printing process from OS
             0 MiB allocation reported by mallinfo(arena+hblkhd)
         23944 MiB available memory on the node where the printing process lives
------------------
     ethr =  1.37E-10,  avg # of iterations =  4.0

     negative rho (up, down):  5.657E-07 0.000E+00

     total cpu time spent up to now is      532.1 secs

     total energy              =   -2790.97065836 Ry
     estimated scf accuracy    <       0.00000011 Ry

     iteration # 21     ecut=    80.00 Ry     beta= 0.20
     Davidson diagonalization with overlap

---- Real-time Memory Report at c_bands before calling an iterative solver
           545 MiB given to the printing process from OS
             0 MiB allocation reported by mallinfo(arena+hblkhd)
         23943 MiB available memory on the node where the printing process lives
------------------
     ethr =  1.91E-11,  avg # of iterations =  4.0

     negative rho (up, down):  3.544E-07 0.000E+00

     total cpu time spent up to now is      554.1 secs

     total energy              =   -2790.97065838 Ry
     estimated scf accuracy    <       0.00000003 Ry

     iteration # 22     ecut=    80.00 Ry     beta= 0.20
     Davidson diagonalization with overlap

---- Real-time Memory Report at c_bands before calling an iterative solver
           548 MiB given to the printing process from OS
             0 MiB allocation reported by mallinfo(arena+hblkhd)
         23941 MiB available memory on the node where the printing process lives
------------------
     ethr =  5.96E-12,  avg # of iterations =  2.0

     total cpu time spent up to now is      574.8 secs

     End of self-consistent calculation

          k = 0.0000 0.0000 0.0000 (265753 PWs)   bands (ev):

   -59.2418 -59.2390 -59.2238 -59.2134 -59.1851 -59.1738 -59.1573 -59.1442
   -35.8527 -35.8514 -35.8321 -35.8298 -35.6023 -35.5968 -35.5868 -35.5837
   -35.5777 -35.5703 -35.5686 -35.5550 -35.5397 -35.5266 -35.5068 -35.5026
   -35.4852 -35.4712 -35.4464 -35.4448 -35.3793 -35.3690 -35.3488 -35.3466
   -23.8901 -23.8286 -23.8129 -23.8067 -23.6525 -23.6126 -23.6008 -23.5880
   -23.5067 -23.4855 -23.4780 -23.4448 -21.5518 -21.4840 -21.4761 -21.4687
   -21.2964 -21.2703 -21.2543 -21.2336 -21.1878 -21.1719 -21.1671 -21.1433
   -21.1403 -21.0998 -21.0699 -21.0285 -20.0820 -20.0466 -19.9303 -19.9091
   -19.9024 -19.8771 -18.9280 -18.9195 -18.8795 -18.8789 -18.7073 -18.6947
   -18.6792 -18.6742 -17.9254 -17.8735 -17.7396 -17.7190 -17.6993 -17.6805
   -16.0082 -15.9593 -15.8084 -15.7746 -15.7427 -15.7213 -15.0110 -14.9595
   -14.8329 -14.8136 -14.7960 -14.7763 -13.4239 -13.3757 -13.2196 -13.1846
   -13.1172 -13.0946 -12.0893 -12.0425 -11.9142 -11.8906 -11.8775 -11.8543
   -11.3338 -11.2868 -11.0808 -11.0513 -11.0174 -10.9837 -10.9532 -10.9276
   -10.8455 -10.8082 -10.7830 -10.7485 -10.0904 -10.0537  -9.9276  -9.9123
    -9.9004  -9.8775  -9.6625  -9.6225  -9.5037  -9.4452  -9.3917  -9.3195
    -9.2820  -9.2347  -9.1799  -9.1229  -9.0860  -9.0514  -9.0047  -8.9632
    -8.9489  -8.9212  -8.8724  -8.8575  -8.8426  -8.8036  -8.7661  -8.7470
    -8.7219  -8.6556  -8.6254  -8.5321  -8.5300  -8.4769  -8.4137  -8.3799
    -8.2427  -8.2274  -8.2089  -8.2041  -8.0562  -7.9894  -7.9277  -7.9120
    -7.8973  -7.8733  -7.8046  -7.7955  -7.7415  -7.7293  -7.6020  -7.5871
    -7.4565  -7.4149  -7.3473  -7.3087  -7.2897  -7.2848  -7.2463  -7.2278
    -7.1742  -7.1408  -7.1235  -7.1056  -6.7759  -6.7037  -6.4983  -6.4524
    -6.4440  -6.4148  -6.3953  -6.3754  -6.3579  -6.3171  -6.2994  -6.2762
    -6.2586  -6.2250  -6.2036  -6.1170  -5.9860  -5.9463  -5.9242  -5.8356
    -5.7237  -5.6872  -5.6480  -5.6368  -5.6058  -5.5840  -5.5353  -5.5123
    -5.4355  -5.4027  -5.3478  -5.3180  -5.2964  -5.2760  -5.2660  -5.2621
    -5.2299  -5.2137  -5.1759  -5.1291  -5.0217  -4.9701  -4.9106  -4.8536
    -4.7383  -4.7010  -4.6911  -4.6572  -4.6327  -4.6243  -4.5991  -4.5891
    -4.5684  -4.5378  -4.4584  -4.4449  -4.4069  -4.3812  -4.3255  -4.2685
    -4.2400  -4.2129  -4.1919  -4.1744  -4.1592  -4.1379  -4.1082  -4.0640
    -4.0542  -4.0422  -4.0342  -4.0208  -3.9616  -3.9278  -3.9263  -3.9130
    -3.8969  -3.8763  -3.8122  -3.7528  -3.7169  -3.6580  -3.6441  -3.6037
    -3.5609  -3.4915  -3.4809  -3.4456  -3.4071  -3.3976  -3.3809  -3.3771
    -3.3390  -3.3300  -3.2656  -3.2441  -3.2300  -3.2096  -2.1207  -2.0744
    -1.9455  -1.9154  -1.9114  -1.9025  -0.1498  -0.1117   0.0145   0.0495
     0.0866   0.1212   0.1817   0.1990   0.2278   0.2849   0.3624   0.3965
     0.4313   0.4581   0.5523   0.5804   0.6208   0.6660   0.6833   0.7218
     0.8187   0.8804   0.9226   0.9389   0.9510   1.0645   1.0974   1.2274
     1.2477   1.2635   2.0317   2.0932   2.1265   2.2105   2.2408   2.2807
     2.2937   2.3063   2.3171   2.3262   2.3823   2.4087   2.4184   2.4469
     2.5119   2.6479   2.6780   2.7274   2.7696   2.8789   2.9377   3.0334
     3.0777   3.0986   3.1493   3.1540   3.1639

     occupation numbers 
     1.0000   1.0000   1.0000   1.0000   1.0000   1.0000   1.0000   1.0000
     1.0000   1.0000   1.0000   1.0000   1.0000   1.0000   1.0000   1.0000
     1.0000   1.0000   1.0000   1.0000   1.0000   1.0000   1.0000   1.0000
     1.0000   1.0000   1.0000   1.0000   1.0000   1.0000   1.0000   1.0000
     1.0000   1.0000   1.0000   1.0000   1.0000   1.0000   1.0000   1.0000
     1.0000   1.0000   1.0000   1.0000   1.0000   1.0000   1.0000   1.0000
     1.0000   1.0000   1.0000   1.0000   1.0000   1.0000   1.0000   1.0000
     1.0000   1.0000   1.0000   1.0000   1.0000   1.0000   1.0000   1.0000
     1.0000   1.0000   1.0000   1.0000   1.0000   1.0000   1.0000   1.0000
     1.0000   1.0000   1.0000   1.0000   1.0000   1.0000   1.0000   1.0000
     1.0000   1.0000   1.0000   1.0000   1.0000   1.0000   1.0000   1.0000
     1.0000   1.0000   1.0000   1.0000   1.0000   1.0000   1.0000   1.0000
     1.0000   1.0000   1.0000   1.0000   1.0000   1.0000   1.0000   1.0000
     1.0000   1.0000   1.0000   1.0000   1.0000   1.0000   1.0000   1.0000
     1.0000   1.0000   1.0000   1.0000   1.0000   1.0000   1.0000   1.0000
     1.0000   1.0000   1.0000   1.0000   1.0000   1.0000   1.0000   1.0000
     1.0000   1.0000   1.0000   1.0000   1.0000   1.0000   1.0000   1.0000
     1.0000   1.0000   1.0000   1.0000   1.0000   1.0000   1.0000   1.0000
     1.0000   1.0000   1.0000   1.0000   1.0000   1.0000   1.0000   1.0000
     1.0000   1.0000   1.0000   1.0000   1.0000   1.0000   1.0000   1.0000
     1.0000   1.0000   1.0000   1.0000   1.0000   1.0000   1.0000   1.0000
     1.0000   1.0000   1.0000   1.0000   1.0000   1.0000   1.0000   1.0000
     1.0000   1.0000   1.0000   1.0000   1.0000   1.0000   1.0000   1.0000
     1.0000   1.0000   1.0000   1.0000   1.0000   1.0000   1.0000   1.0000
     1.0000   1.0000   1.0000   1.0000   1.0000   1.0000   1.0000   1.0000
     1.0000   1.0000   1.0000   1.0000   1.0000   1.0000   1.0000   1.0000
     1.0000   1.0000   1.0000   1.0000   1.0000   1.0000   1.0000   1.0000
     1.0000   1.0000   1.0000   1.0000   1.0000   1.0000   1.0000   1.0000
     1.0000   1.0000   1.0000   1.0000   1.0000   1.0000   1.0000   1.0000
     1.0000   1.0000   1.0000   1.0000   1.0000   1.0000   1.0000   1.0000
     1.0000   1.0000   1.0000   1.0000   1.0000   1.0000   1.0000   1.0000
     1.0000   1.0000   1.0000   1.0000   1.0000   1.0000   1.0000   1.0000
     1.0000   1.0000   1.0000   1.0000   1.0000   1.0000   1.0000   1.0000
     1.0000   1.0000   1.0000   1.0000   1.0000   1.0000   1.0000   1.0000
     1.0000   1.0000   1.0000   1.0000   1.0000   1.0000   0.9893   0.9862
     0.9735   0.9694   0.9689   0.9675   0.0361   0.0303   0.0162   0.0135
     0.0110   0.0091   0.0064   0.0058   0.0049   0.0035   0.0021   0.0017
     0.0013   0.0011   0.0006   0.0005   0.0003   0.0002   0.0002   0.0002
     0.0001   0.0000   0.0000   0.0000   0.0000   0.0000   0.0000   0.0000
     0.0000   0.0000   0.0000   0.0000   0.0000   0.0000   0.0000   0.0000
     0.0000   0.0000   0.0000   0.0000   0.0000   0.0000   0.0000   0.0000
     0.0000   0.0000   0.0000   0.0000   0.0000   0.0000   0.0000   0.0000
     0.0000   0.0000   0.0000   0.0000   0.0000

     the Fermi energy is    -1.0146 ev

!    total energy              =   -2790.97065837 Ry
     estimated scf accuracy    <          8.9E-09 Ry
     smearing contrib. (-TS)   =      -0.04953490 Ry
     internal energy E=F+TS    =   -2790.92112347 Ry

     The total energy is F=E-TS. E is the sum of the following terms:
     one-electron contribution =   -8403.06691333 Ry
     hartree contribution      =    4305.31567240 Ry
     xc contribution           =    -591.50885065 Ry
     ewald contribution        =    1898.67339635 Ry
     DFT-D3 Dispersion         =      -0.33442824 Ry

     convergence has been achieved in  22 iterations

     Writing all to output data dir ./tmp/MIL125_NH2_opt.save/ :
     XML data file, charge density, pseudopotentials, collected wavefunctions

     init_run     :     14.64s CPU     14.98s WALL (       1 calls)
     electrons    :    553.77s CPU    560.09s WALL (       1 calls)

     Called by init_run:
     wfcinit      :     10.07s CPU     10.21s WALL (       1 calls)
     wfcinit:atom :      0.04s CPU      0.06s WALL (       1 calls)
     wfcinit:wfcr :      9.84s CPU      9.95s WALL (       1 calls)
     potinit      :      1.11s CPU      1.23s WALL (       1 calls)
     hinit0       :      0.43s CPU      0.45s WALL (       1 calls)

     Called by electrons:
     c_bands      :    482.19s CPU    485.85s WALL (      22 calls)
     sum_band     :     56.10s CPU     56.55s WALL (      22 calls)
     v_of_rho     :     11.85s CPU     13.79s WALL (      23 calls)
     v_h          :      0.83s CPU      1.23s WALL (      23 calls)
     v_xc         :     11.02s CPU     12.57s WALL (      23 calls)
     mix_rho      :      2.04s CPU      2.14s WALL (      22 calls)
     energy_dftd3 :      0.58s CPU      0.58s WALL (       1 calls)

     Called by c_bands:
     init_us_2    :      0.58s CPU      0.61s WALL (      45 calls)
     cegterg      :    481.78s CPU    485.44s WALL (      22 calls)

     Called by sum_band:
     sum_band:wei :      0.00s CPU      0.00s WALL (      22 calls)
     sum_band:loo :     55.16s CPU     55.48s WALL (      22 calls)
     sum_band:buf :      0.00s CPU      0.00s WALL (      22 calls)
     sum_band:ini :      0.29s CPU      0.30s WALL (      22 calls)

     Called by *egterg:
     cdiaghg      :     26.96s CPU     27.11s WALL (     179 calls)
     cegterg:over :     75.97s CPU     76.25s WALL (     157 calls)
     cegterg:upda :     48.14s CPU     48.61s WALL (     157 calls)
     cegterg:last :     89.28s CPU     89.55s WALL (      50 calls)
     cdiaghg:chol :      1.64s CPU      1.64s WALL (     179 calls)
     cdiaghg:inve :      0.54s CPU      0.55s WALL (     179 calls)
     cdiaghg:para :      7.52s CPU      7.62s WALL (     358 calls)
     h_psi        :    226.51s CPU    228.61s WALL (     180 calls)
     g_psi        :      0.65s CPU      0.65s WALL (     157 calls)

     Called by h_psi:
     h_psi:calbec :     20.12s CPU     20.20s WALL (     180 calls)
     vloc_psi     :    191.96s CPU    193.31s WALL (     180 calls)
     add_vuspsi   :     13.24s CPU     13.27s WALL (     180 calls)

     General routines
     calbec       :     20.12s CPU     20.20s WALL (     180 calls)
     fft          :      8.47s CPU      9.64s WALL (     273 calls)
     ffts         :      0.83s CPU      0.88s WALL (      45 calls)
     fftw         :    159.41s CPU    160.44s WALL (   46244 calls)
     interpolate  :      1.40s CPU      1.47s WALL (      23 calls)

     Parallel routines

     PWSCF        :   9m29.47s CPU   9m36.96s WALL


   This run was terminated on:   0:39:42  14Apr2025            

=------------------------------------------------------------------------------=
   JOB DONE.
=------------------------------------------------------------------------------=
Note: The following floating-point exceptions are signalling: IEEE_DENORMAL
Note: The following floating-point exceptions are signalling: IEEE_DENORMAL
Note: The following floating-point exceptions are signalling: IEEE_DENORMAL
