
                                 *****************
                                 * O   R   C   A *
                                 *****************

                                            #,                                       
                                            ###                                      
                                            ####                                     
                                            #####                                    
                                            ######                                   
                                           ########,                                 
                                     ,,################,,,,,                         
                               ,,#################################,,                 
                          ,,##########################################,,             
                       ,#########################################, ''#####,          
                    ,#############################################,,   '####,        
                  ,##################################################,,,,####,       
                ,###########''''           ''''###############################       
              ,#####''   ,,,,##########,,,,          '''####'''          '####       
            ,##' ,,,,###########################,,,                        '##       
           ' ,,###''''                  '''############,,,                           
         ,,##''                                '''############,,,,        ,,,,,,###''
      ,#''                                            '''#######################'''  
     '                                                          ''''####''''         
             ,#######,   #######,   ,#######,      ##                                
            ,#'     '#,  ##    ##  ,#'     '#,    #''#        ,####,   ,####,        
            ##       ##  ##   ,#'  ##            #'  '#       #'       #'  '#        
            ##       ##  #######   ##           ,######,      #####,   #    #        
            '#,     ,#'  ##    ##  '#,     ,#' ,#      #,     #,   #   #,  ,#        
             '#######'   ##     ##  '#######'  #'      '#     '####' # '####'        



                #########################################################
                #                        -***-                          #
                #          Department of theory and spectroscopy        #
                #                                                       #
                #                      Frank Neese                      #
                #                                                       #
                #     Directorship, Architecture, Infrastructure        #
                #                    SHARK, DRIVERS                     #
                #        Core code/Algorithms in most modules           #
                #                                                       #
                #        Max Planck Institute fuer Kohlenforschung      #
                #                Kaiser Wilhelm Platz 1                 #
                #                 D-45470 Muelheim/Ruhr                 #
                #                      Germany                          #
                #                                                       #
                #                  All rights reserved                  #
                #                        -***-                          #
                #########################################################


                         Program Version 6.0.1  -  RELEASE   -


 With contributions from (in alphabetic order):
[Max-Planck-Institut fuer Kohlenforschung]                               
  Daniel Aravena         : Magnetic Suceptibility                        
  Michael Atanasov       : Ab Initio Ligand Field Theory (pilot matlab implementation)
  Alexander A. Auer      : GIAO ZORA, VPT2 properties, NMR spectrum      
  Ute Becker             : All parallelization in ORCA, NUMFREQ, NUMCALC 
  Giovanni Bistoni       : ED, misc. LED, open-shell LED, HFLD           
  Martin Brehm           : Molecular dynamics                            
  Dmytro Bykov           : pre 5.0 version of the SCF Hessian            
  Marcos Casanova-Páez   : Triplet and SCS-CIS(D). UHF-(DLPNO)-IP/EA/STEOM-CCSD. UHF-CVS-IP/STEOM-CCSD   
  Vijay G. Chilkuri      : MRCI spin determinant printing, contributions to CSF-ICE 
  Pauline Colinet        : FMM embedding                                 
  Dipayan Datta          : RHF DLPNO-CCSD density                        
  Achintya Kumar Dutta   : EOM-CC, STEOM-CC                              
  Nicolas Foglia         : Exact transition moments, OPA infrastructure, MCD improvements    
  Dmitry Ganyushin       : Spin-Orbit,Spin-Spin,Magnetic field MRCI      
  Miquel Garcia-Rates    : C-PCM and meta-GGA Hessian, CCSD/C-PCM, Gaussian charge scheme 
  Tiago L. C. Gouveia    : GS-ROHF, GS-ROCIS                             
  Yang Guo               : DLPNO-NEVPT2, F12-NEVPT2, CIM, IAO-localization        
  Andreas Hansen         : Spin unrestricted coupled pair/coupled cluster methods 
  Ingolf Harden          : AUTO-CI MPn and infrastructure                
  Benjamin Helmich-Paris : MC-RPA, TRAH-(SCF,CASSCF), AVAS, COSX integrals, SCF dyn. polar. 
  Lee Huntington         : MR-EOM, pCC                                   
  Robert Izsak           : Overlap fitted RIJCOSX, COSX-SCS-MP3, EOM     
  Riya Kayal             : Wick's Theorem for AUTO-CI, AUTO-CI UHF-CCSDT 
  Emily Kempfer          : AUTO-CI, RHF CISDT and CCSDT                  
  Christian Kollmar      : KDIIS, OOCD, Brueckner-CCSD(T), CCSD density, CASPT2, CASPT2-K, improved NEVPT2 
  Axel Koslowski         : Symmetry handling                             
  Simone Kossmann        : meta-GGA functionals, TD-DFT gradient, OOMP2, (MP2 Hessian; deprecated post 5.0) 
  Lucas Lang             : DCDCAS                                        
  Marvin Lechner         : AUTO-CI (C++ implementation), FIC-MRCC        
  Spencer Leger          : CASSCF response                               
  Dagmar Lenk            : GEPOL surface, SMD, ORCA-2-JSON               
  Dimitrios Liakos       : Extrapolation schemes; Compound Job, initial MDCI parallelization 
  Dimitrios Manganas     : Further ROCIS development; embedding schemes. LFT, Crystal Embedding 
  Dimitrios Pantazis     : SARC Basis sets                               
  Anastasios Papadopoulos: AUTO-CI, single reference methods and gradients 
  Taras Petrenko         : pre 6.0 DFT Hessian and TD-DFT gradient, (ASA, deprecated), ECA, 1-Electron XAS/XES, NRVS 
  Peter Pinski           : DLPNO-MP2, DLPNO-MP2 Gradient                 
  Christoph Reimann      : Effective Core Potentials                     
  Marius Retegan         : Local ZFS, SOC                                
  Christoph Riplinger    : Optimizer, TS searches, QM/MM, DLPNO-CCSD(T), (RO)-DLPNO pert. Triples 
  Michael Roemelt        : Original ROCIS implementation                 
  Masaaki Saitow         : Open-shell DLPNO-CCSD energy and density      
  Barbara Sandhoefer     : DKH picture change effects                    
  Kantharuban Sivalingam : CASSCF convergence/infrastructure, NEVPT2 and variants, FIC-MRCI 
  Bernardo de Souza      : ESD, SOC TD-DFT                               
  Georgi L. Stoychev     : AutoAux, RI-MP2 NMR, DLPNO-MP2 response, X2C  
  Van Anh Tran           : RI-MP2 g-tensors                              
  Willem Van den Heuvel  : Paramagnetic NMR                              
  Zikuan Wang            : NOTCH, Electric field optimization            
  Frank Wennmohs         : Technical directorship and infrastructure     
  Hang Xu                : AUTO-CI-Response properties                   
                                                                         
[FACCTs GmbH]                                                            
  Markus Bursch, Miquel Garcia-Rates, Christoph Riplinger, Bernardo de Souza, Georgi L. Stoychev 
                                                                 
  APM, Basis sets (HGBS, AHGBS, def-TZVP (Ac-Lr), def2-XVPD (La-Lu)), CI-OPT, improved COSX, DLPNO-Multilevel,           
  DOCKER, DRACO, updates on ESD, GOAT, IRC, LR-CPCM, MBIS, meta-GGA TD-DFT gradient, ML-optimized integration grids, 
  MM, NACMEs, nearIR, NEB, NEB-TS, NL-DFT gradient (VV10), 2- and 3-layer-ONIOM, interface openCOSMO-RS, QMMM,   
  Crystal-QMMM, SF, symmetry and pop. for TD-DFT, r2SCAN hybrids, SOLVATOR                                   
                                                                         
[Other institutions]                                                     
  V. Asgeirsson          : NEB                                           
  Christoph Bannwarth    : sTDA-DFT, sTD-DFT, PBEh-3c, B97-3c, D3        
  Sebastian Ehlert       : rSCAN, r2SCAN, r2SCAN-3c, D4, dhf basis sets  
  Marvin Friede          : D4 for Fr, Ra, Ac-Lr                          
  Lars Goerigk           : TD-DFT with DH, B97 family of functionals     
  Stefan Grimme          : VdW corrections, initial TS optimization, DFT functionals, gCP, sTDA/sTD-DF 
  Waldemar Hujo          : DFT-NL                                        
  H. Jonsson             : NEB                                           
  Holger Kruse           : gCP                                           
  Marcel Mueller         : wB97X-3c, vDZP basis set                      
  Hagen Neugebauer       : wr2SCAN                                       
  Tobias Risthaus        : range-separated hybrid DFT                    
  Lukas Wittmann         : regularized MP2, r2SCAN double-hybrids, wr2SCAN        
                                                                         
We gratefully acknowledge several colleagues who have allowed us to      
interface, adapt or use parts of their codes:                            
  Ed Valeev, F. Pavosevic, A. Kumar             : LibInt (2-el integral package), F12 methods 
  Garnet Chan, S. Sharma, J. Yang, R. Olivares  : DMRG                   
  Ulf Ekstrom                                   : XCFun DFT Library      
  Mihaly Kallay                                 : mrcc  (arbitrary order and MRCC methods)
  Frank Weinhold                                : gennbo (NPA and NBO analysis)           
  Simon Mueller                                 : openCOSMO-RS                            
  Christopher J. Cramer and Donald G. Truhlar   : smd solvation model                     
  S Lehtola, MJT Oliveira, MAL Marques          : LibXC Library                           
  Liviu Ungur et al                             : ANISO software                          


 Your calculation uses the libint2 library for the computation of 2-el integrals
 For citations please refer to: http://libint.valeyev.net

 Your ORCA version has been built with support for libXC version: 6.2.2
 For citations please refer to: https://libxc.gitlab.io

 This ORCA versions uses:
   CBLAS   interface :  Fast vector & matrix operations
   LAPACKE interface :  Fast linear algebra routines
   SCALAPACK package :  Parallel linear algebra routines
   Shared memory     :  Shared parallel matrices
   BLAS/LAPACK       :  OpenBLAS 0.3.27  USE64BITINT DYNAMIC_ARCH NO_AFFINITY SkylakeX SINGLE_THREADED
        Core in use  :  SkylakeX
   Copyright (c) 2011-2014, The OpenBLAS Project


NOTE: MaxCore=5000 MB was set to SCF,MP2,MDCI,CIPSI,MRCI and CIS
      => If you want to overwrite this, your respective input block should be placed after the MaxCore statement
Your calculation utilizes the atom-pairwise dispersion correction
based on EEQ partial charges (D4)


Warning: RI is on but no J-basis has been assigned. Assigning Def2/J (nothing to worry about!)
================================================================================

----- Orbital basis set information -----
Your calculation utilizes the basis: def2-TZVP
   F. Weigend and R. Ahlrichs, Phys. Chem. Chem. Phys. 7, 3297 (2005).

----- AuxJ basis set information -----
Your calculation utilizes the auxiliary basis: def2/J
   F. Weigend, Phys. Chem. Chem. Phys. 8, 1057 (2006).

================================================================================
                                        WARNINGS
                       Please study these warnings very carefully!
================================================================================


================================================================================
                                       INPUT FILE
================================================================================
NAME = TFS.inp
|  1> ! SP B3LYP D4 def2-TZVP TightSCF CHELPG
|  2> 
|  3> %maxcore 5000
|  4> 
|  5> %pal
|  6> nprocs 30
|  7> end
|  8> 
|  9> * xyz -1 1
| 10>   S          -1.44853221739712     -1.01732808403032     -0.29049132149497
| 11>   S           1.34022967207696     -0.86175460472022      0.17961975841802
| 12>   F          -1.82007710667890      1.60092367346238     -0.64461426060240
| 13>   F          -3.30541826209407      0.63980812608893      0.61309770210974
| 14>   F          -1.32600619539836      1.05686147174676      1.39550341262314
| 15>   F           3.25702523223421      0.94372017619894      0.36128971858656
| 16>   F           2.34009527071026      0.86444682822527     -1.60274180226918
| 17>   F           1.29075251257461      1.80480090986882      0.04629560449167
| 18>   O          -1.65064135056383     -1.87275735283676      0.84864265096478
| 19>   O          -2.25234941840548     -1.21464814174666     -1.46737088874125
| 20>   O           2.29375052409145     -1.81558462442950     -0.32424201477343
| 21>   O           1.13711490778685     -0.76813327165957      1.60174373178120
| 22>   N           0.04940880788728     -0.81152334548387     -0.73306631525787
| 23>   C          -1.99508343835650      0.66865312460520      0.30539210232145
| 24>   C           2.08983106153263      0.78241511471059     -0.28895807815747
| 25> *
| 26> 
| 27>                          ****END OF INPUT****
================================================================================

                       ****************************
                       * Single Point Calculation *
                       ****************************

---------------------------------
CARTESIAN COORDINATES (ANGSTROEM)
---------------------------------
  S     -1.448532   -1.017328   -0.290491
  S      1.340230   -0.861755    0.179620
  F     -1.820077    1.600924   -0.644614
  F     -3.305418    0.639808    0.613098
  F     -1.326006    1.056861    1.395503
  F      3.257025    0.943720    0.361290
  F      2.340095    0.864447   -1.602742
  F      1.290753    1.804801    0.046296
  O     -1.650641   -1.872757    0.848643
  O     -2.252349   -1.214648   -1.467371
  O      2.293751   -1.815585   -0.324242
  O      1.137115   -0.768133    1.601744
  N      0.049409   -0.811523   -0.733066
  C     -1.995083    0.668653    0.305392
  C      2.089831    0.782415   -0.288958

----------------------------
CARTESIAN COORDINATES (A.U.)
----------------------------
  NO LB      ZA    FRAG     MASS         X           Y           Z
   0 S    16.0000    0    32.060   -2.737329   -1.922471   -0.548949
   1 S    16.0000    0    32.060    2.532667   -1.628480    0.339432
   2 F     9.0000    0    18.998   -3.439447    3.025307   -1.218144
   3 F     9.0000    0    18.998   -6.246335    1.209062    1.158587
   4 F     9.0000    0    18.998   -2.505789    1.997179    2.637119
   5 F     9.0000    0    18.998    6.154886    1.783373    0.682739
   6 F     9.0000    0    18.998    4.422139    1.633568   -3.028743
   7 F     9.0000    0    18.998    2.439169    3.410579    0.087486
   8 O     8.0000    0    15.999   -3.119260   -3.538999    1.603702
   9 O     8.0000    0    15.999   -4.256324   -2.295352   -2.772929
  10 O     8.0000    0    15.999    4.334560   -3.430958   -0.612729
  11 O     8.0000    0    15.999    2.148836   -1.451562    3.026857
  12 N     7.0000    0    14.007    0.093369   -1.533557   -1.385295
  13 C     6.0000    0    12.011   -3.770161    1.263571    0.577107
  14 C     6.0000    0    12.011    3.949208    1.478550   -0.546052

--------------------------------
INTERNAL COORDINATES (ANGSTROEM)
--------------------------------
 S      0   0   0     0.000000000000     0.00000000     0.00000000
 S      1   0   0     2.832384227308     0.00000000     0.00000000
 F      1   2   0     2.668087503506    96.04094061     0.00000000
 F      3   1   2     2.170672896713    65.41036684   224.43527491
 F      3   1   2     2.168453334826    66.24596220   290.87400998
 F      2   1   3     2.639478808099   139.81926877     1.52114357
 F      6   2   1     2.168977785261    66.77612071   296.79286182
 F      7   6   2     2.169034437673    60.01632704    75.48409754
 O      1   2   3     1.438830616456    92.26689115   227.35947968
 O      1   2   3     1.438785186752   133.89747827    91.69435854
 O      2   1   3     1.439746647230   123.89057889   219.47301760
 O      2   1   3     1.439603124855    91.63980714    92.57369470
 N      1   2   3     1.575454071289    26.27171258    73.17029058
 C      5   3   1     1.336679747240    36.05513907   323.44092645
 C      7   6   2     1.339921285061    36.23006853    37.98088076

---------------------------
INTERNAL COORDINATES (A.U.)
---------------------------
 S      0   0   0     0.000000000000     0.00000000     0.00000000
 S      1   0   0     5.352430495651     0.00000000     0.00000000
 F      1   2   0     5.041954682965    96.04094061     0.00000000
 F      3   1   2     4.101977301112    65.41036684   224.43527491
 F      3   1   2     4.097782937009    66.24596220   290.87400998
 F      2   1   3     4.987892083595   139.81926877     1.52114357
 F      6   2   1     4.098774004702    66.77612071   296.79286182
 F      7   6   2     4.098881062246    60.01632704    75.48409754
 O      1   2   3     2.718995818204    92.26689115   227.35947968
 O      1   2   3     2.718909968503   133.89747827    91.69435854
 O      2   1   3     2.720726865495   123.89057889   219.47301760
 O      2   1   3     2.720455647512    91.63980714    92.57369470
 N      1   2   3     2.977176731308    26.27171258    73.17029058
 C      5   3   1     2.525958651043    36.05513907   323.44092645
 C      7   6   2     2.532084269776    36.23006853    37.98088076

---------------------
BASIS SET INFORMATION
---------------------
There are 5 groups of distinct atoms

 Group   1 Type S   : 14s9p3d1f contracted to 5s5p2d1f pattern {73211/51111/21/1}
 Group   2 Type F   : 11s6p2d1f contracted to 5s3p2d1f pattern {62111/411/11/1}
 Group   3 Type O   : 11s6p2d1f contracted to 5s3p2d1f pattern {62111/411/11/1}
 Group   4 Type N   : 11s6p2d1f contracted to 5s3p2d1f pattern {62111/411/11/1}
 Group   5 Type C   : 11s6p2d1f contracted to 5s3p2d1f pattern {62111/411/11/1}

Atom   0S    basis set group =>   1
Atom   1S    basis set group =>   1
Atom   2F    basis set group =>   2
Atom   3F    basis set group =>   2
Atom   4F    basis set group =>   2
Atom   5F    basis set group =>   2
Atom   6F    basis set group =>   2
Atom   7F    basis set group =>   2
Atom   8O    basis set group =>   3
Atom   9O    basis set group =>   3
Atom  10O    basis set group =>   3
Atom  11O    basis set group =>   3
Atom  12N    basis set group =>   4
Atom  13C    basis set group =>   5
Atom  14C    basis set group =>   5
---------------------------------
AUXILIARY/J BASIS SET INFORMATION
---------------------------------
There are 5 groups of distinct atoms

 Group   1 Type S   : 14s5p5d2f1g contracted to 8s4p3d1f1g pattern {71111111/2111/311/2/1}
 Group   2 Type F   : 12s5p4d2f1g contracted to 6s4p3d1f1g pattern {711111/2111/211/2/1}
 Group   3 Type O   : 12s5p4d2f1g contracted to 6s4p3d1f1g pattern {711111/2111/211/2/1}
 Group   4 Type N   : 12s5p4d2f1g contracted to 6s4p3d1f1g pattern {711111/2111/211/2/1}
 Group   5 Type C   : 12s5p4d2f1g contracted to 6s4p3d1f1g pattern {711111/2111/211/2/1}

Atom   0S    basis set group =>   1
Atom   1S    basis set group =>   1
Atom   2F    basis set group =>   2
Atom   3F    basis set group =>   2
Atom   4F    basis set group =>   2
Atom   5F    basis set group =>   2
Atom   6F    basis set group =>   2
Atom   7F    basis set group =>   2
Atom   8O    basis set group =>   3
Atom   9O    basis set group =>   3
Atom  10O    basis set group =>   3
Atom  11O    basis set group =>   3
Atom  12N    basis set group =>   4
Atom  13C    basis set group =>   5
Atom  14C    basis set group =>   5
--------------------------------------------------------------------------
WARNING: There was an error initializing an OpenFabrics device.

  Local host:   ga00
  Local device: mlx5_0
--------------------------------------------------------------------------


           ************************************************************
           *        Program running with 30 parallel MPI-processes    *
           *              working on a common directory               *
           ************************************************************
------------------------------------------------------------------------------
                             ORCA STARTUP CALCULATIONS
                           -- RI-GTO INTEGRALS CHOSEN --
------------------------------------------------------------------------------
------------------------------------------------------------------------------
                   ___                                                        
                  /   \      - P O W E R E D   B Y -                         
                 /     \                                                     
                 |  |  |   _    _      __       _____    __    __             
                 |  |  |  | |  | |    /  \     |  _  \  |  |  /  |          
                  \  \/   | |  | |   /    \    | | | |  |  | /  /          
                 / \  \   | |__| |  /  /\  \   | |_| |  |  |/  /          
                |  |  |   |  __  | /  /__\  \  |    /   |      \           
                |  |  |   | |  | | |   __   |  |    \   |  |\   \          
                \     /   | |  | | |  |  |  |  | |\  \  |  | \   \       
                 \___/    |_|  |_| |__|  |__|  |_| \__\ |__|  \__/        
                                                                              
                      - O R C A' S   B I G   F R I E N D -                    
                                      &                                       
                       - I N T E G R A L  F E E D E R -                       
                                                                              
 v1 FN, 2020, v2 2021, v3 2022-2024                                           
------------------------------------------------------------------------------


----------------------
SHARK INTEGRAL PACKAGE
----------------------

Number of atoms                             ...     15
Number of basis functions                   ...    477
Number of shells                            ...    169
Maximum angular momentum                    ...      3
Integral batch strategy                     ... SHARK/LIBINT Hybrid
RI-J (if used) integral strategy            ... SPLIT-RIJ (Revised 2003 algorithm where possible)
Printlevel                                  ...      1
Contraction scheme used                     ... SEGMENTED contraction
Prescreening option                         ... SCHWARTZ
   Thresh                                   ... 2.500e-11
   Tcut                                     ... 2.500e-12
   Tpresel                                  ... 2.500e-12 
Coulomb Range Separation                    ... NOT USED
Exchange Range Separation                   ... NOT USED
Multipole approximations                    ... NOT USED
Finite Nucleus Model                        ... NOT USED
CABS basis                                  ... NOT available
Auxiliary Coulomb fitting basis             ... AVAILABLE
   # of basis functions in Aux-J            ...    739
   # of shells in Aux-J                     ...    229
   Maximum angular momentum in Aux-J        ...      4
Auxiliary J/K fitting basis                 ... NOT available
Auxiliary Correlation fitting basis         ... NOT available
Auxiliary 'external' fitting basis          ... NOT available

Checking pre-screening integrals            ... done (  0.0 sec) Dimension = 169
Check shell pair data                       ... done (  0.0 sec)
Shell pair information
Shell pair cut-off parameter TPreSel        ...   2.5e-12
Total number of shell pairs                 ...     14365
Shell pairs after pre-screening             ...     10800
Total number of primitive shell pairs       ...     49813
Primitive shell pairs kept                  ...     24598
          la=0 lb=0:   1910 shell pairs
          la=1 lb=0:   2914 shell pairs
          la=1 lb=1:   1087 shell pairs
          la=2 lb=0:   1572 shell pairs
          la=2 lb=1:   1208 shell pairs
          la=2 lb=2:    347 shell pairs
          la=3 lb=0:    747 shell pairs
          la=3 lb=1:    598 shell pairs
          la=3 lb=2:    332 shell pairs
          la=3 lb=3:     85 shell pairs

Calculating one electron integrals          ... done (  0.0 sec)
Calculating RI/J V-Matrix + Cholesky decomp.... done (  0.0 sec)
Calculating Nuclear repulsion               ... done (  0.0 sec) ENN=   1607.513952580279 Eh

Diagonalization of the overlap matrix:
Smallest eigenvalue                        ... 6.062e-04
Time for diagonalization                   ...    0.023 sec
Threshold for overlap eigenvalues          ... 1.000e-07
Number of eigenvalues below threshold      ... 0
Time for construction of square roots      ...    0.011 sec
Total time needed                          ...    0.036 sec

-------------------
DFT GRID GENERATION
-------------------

General Integration Accuracy     IntAcc      ... 4.388
Radial Grid Type                 RadialGrid  ... OptM3 with GC (2021)
Angular Grid (max. ang.)         AngularGrid ... 4 (Lebedev-302)
Angular grid pruning method      GridPruning ... 4 (adaptive)
Weight generation scheme         WeightScheme... mBecke (2022)
Basis function cutoff            BFCut       ... 1.0000e-11
Integration weight cutoff        WCut        ... 1.0000e-14
Partially contracted basis set               ... off
Rotationally invariant grid construction     ... off
Angular grids for H and He will be reduced by one unit

Total number of grid points                  ...    93652
Total number of batches                      ...     1472
Average number of points per batch           ...       63
Average number of grid points per atom       ...     6243

--------------------
COSX GRID GENERATION
--------------------

GRIDX 1
-------
General Integration Accuracy     IntAcc      ... 3.816
Radial Grid Type                 RadialGrid  ... OptM3 with GC (2021)
Angular Grid (max. ang.)         AngularGrid ... 1 (Lebedev-50)
Angular grid pruning method      GridPruning ... 4 (adaptive)
Weight generation scheme         WeightScheme... mBecke (2022)
Basis function cutoff            BFCut       ... 1.0000e-11
Integration weight cutoff        WCut        ... 1.0000e-14
Partially contracted basis set               ... on
Rotationally invariant grid construction     ... off
Angular grids for H and He will be reduced by one unit

Total number of grid points                  ...    13828
Total number of batches                      ...      113
Average number of points per batch           ...      122
Average number of grid points per atom       ...      922
UseSFitting                                  ... on

GRIDX 2
-------
General Integration Accuracy     IntAcc      ... 4.020
Radial Grid Type                 RadialGrid  ... OptM3 with GC (2021)
Angular Grid (max. ang.)         AngularGrid ... 2 (Lebedev-110)
Angular grid pruning method      GridPruning ... 4 (adaptive)
Weight generation scheme         WeightScheme... mBecke (2022)
Basis function cutoff            BFCut       ... 1.0000e-11
Integration weight cutoff        WCut        ... 1.0000e-14
Partially contracted basis set               ... on
Rotationally invariant grid construction     ... off
Angular grids for H and He will be reduced by one unit

Total number of grid points                  ...    27641
Total number of batches                      ...      225
Average number of points per batch           ...      122
Average number of grid points per atom       ...     1843
UseSFitting                                  ... on

GRIDX 3
-------
General Integration Accuracy     IntAcc      ... 4.338
Radial Grid Type                 RadialGrid  ... OptM3 with GC (2021)
Angular Grid (max. ang.)         AngularGrid ... 3 (Lebedev-194)
Angular grid pruning method      GridPruning ... 4 (adaptive)
Weight generation scheme         WeightScheme... mBecke (2022)
Basis function cutoff            BFCut       ... 1.0000e-11
Integration weight cutoff        WCut        ... 1.0000e-14
Partially contracted basis set               ... on
Rotationally invariant grid construction     ... off
Angular grids for H and He will be reduced by one unit

Total number of grid points                  ...    62390
Total number of batches                      ...      495
Average number of points per batch           ...      126
Average number of grid points per atom       ...     4159
UseSFitting                                  ... on
Initializing property integral containers    ... done (  0.0 sec)

SHARK setup successfully completed in   1.0 seconds

Maximum memory used throughout the entire STARTUP-calculation: 33.5 MB
[ga00:463175] 29 more processes have sent help message help-mpi-btl-openib.txt / error in device init
[ga00:463175] Set MCA parameter "orte_base_help_aggregate" to 0 to see all help / error messages
--------------------------------------------------------------------------
WARNING: There was an error initializing an OpenFabrics device.

  Local host:   ga00
  Local device: mlx5_0
--------------------------------------------------------------------------


           ************************************************************
           *        Program running with 30 parallel MPI-processes    *
           *              working on a common directory               *
           ************************************************************
-------------------------------------------------------------------------------
                                 ORCA GUESS
                   Start orbitals & Density for SCF / CASSCF
-------------------------------------------------------------------------------

------------
SCF SETTINGS
------------
Hamiltonian:
 Density Functional     Method          .... DFT(GTOs)
 Exchange Functional    Exchange        .... B88
   X-Alpha parameter    XAlpha          ....  0.666667
   Becke's b parameter  XBeta           ....  0.004200
 Correlation Functional Correlation     .... LYP
 LDA part of GGA corr.  LDAOpt          .... VWN-5
 Gradients option       PostSCFGGA      .... off
 Hybrid DFT is turned on
   Fraction HF Exchange ScalHFX         ....  0.200000
   Scaling of DF-GGA-X  ScalDFX         ....  0.720000
   Scaling of DF-GGA-C  ScalDFC         ....  0.810000
   Scaling of DF-LDA-C  ScalLDAC        ....  1.000000
   Perturbative correction              ....  0.000000
   NL short-range parameter             ....  4.800000
 RI-approximation to the Coulomb term is turned on
   Number of AuxJ basis functions       .... 739
   RIJ-COSX (HFX calculated with COS-X)).... on


General Settings:
 Integral files         IntName         .... TFS
 Hartree-Fock type      HFTyp           .... RHF
 Total Charge           Charge          ....   -1
 Multiplicity           Mult            ....    1
 Number of Electrons    NEL             ....  138
 Basis Dimension        Dim             ....  477
 Nuclear Repulsion      ENuc            ....   1607.5139525803 Eh

Convergence Acceleration:
 AO-DIIS                CNVDIIS         .... on
   Start iteration      DIISMaxIt       ....    12
   Startup error        DIISStart       ....  0.200000
   # of expansion vecs  DIISMaxEq       ....     5
   Bias factor          DIISBfac        ....   1.050
   Max. coefficient     DIISMaxC        ....  10.000
 MO-DIIS                CNVKDIIS        .... off
 Trust-Rad. Augm. Hess. CNVTRAH         .... auto
   Auto Start mean grad. ratio tolernc. ....  1.125000
   Auto Start start iteration           ....    50
   Auto Start num. interpolation iter.  ....    10
   Max. Number of Micro iterations      ....    24
   Max. Number of Macro iterations      .... Maxiter - #DIIS iter
   Number of Davidson start vectors     ....     2
   Converg. threshold    (grad. norm)   ....   1.000e-05
   Grad. Scal. Fac. for Micro threshold ....   0.100
   Minimum threshold for Micro iter.    ....   1.000e-02
   NR start threshold (gradient norm)   ....   1.000e-04
   Initial trust radius                 ....   0.400
   Minimum AH scaling param. (alpha)    ....   1.000
   Maximum AH scaling param. (alpha)    .... 1000.000
   Quad. conv. algorithm                .... NR
   White noise on init. David. guess    .... on
   Maximum white noise                  ....   0.010
   Pseudo random numbers                .... off
   Inactive MOs                         .... canonical
   Orbital update algorithm             .... Taylor
   Preconditioner                       .... Diag
   Full preconditioner red. dimension   ....   250
 SOSCF                  CNVSOSCF        .... on
   Start iteration      SOSCFMaxIt      ....   150
   Startup grad/error   SOSCFStart      ....  0.003300
   Hessian update       SOSCFHessUp     .... L-BFGS
 Level Shifting         CNVShift        .... on
   Level shift para.    LevelShift      ....    0.2500
   Turn off err/grad.   ShiftErr        ....    0.0010
 Zerner damping         CNVZerner       .... off
 Static damping         CNVDamp         .... on
   Fraction old density DampFac         ....    0.7000
   Max. Damping (<1)    DampMax         ....    0.9800
   Min. Damping (>=0)   DampMin         ....    0.0000
   Turn off err/grad.   DampErr         ....    0.1000

SCF Procedure:
 Maximum # iterations   MaxIter         ....   125
 SCF integral mode      SCFMode         .... Direct
   Integral package                     .... SHARK and LIBINT hybrid scheme
 Reset frequency        DirectResetFreq ....    20
 Integral Threshold     Thresh          ....  2.500e-11 Eh
 Primitive CutOff       TCut            ....  2.500e-12 Eh

Convergence Tolerance:
 Convergence Check Mode ConvCheckMode   .... Total+1el-Energy
 Convergence forced     ConvForced      .... 0
 Energy Change          TolE            ....  1.000e-08 Eh
 1-El. energy change                    ....  1.000e-05 Eh
 Orbital Gradient       TolG            ....  1.000e-05
 Orbital Rotation angle TolX            ....  1.000e-05
 DIIS Error             TolErr          ....  5.000e-07

------------------------------
INITIAL GUESS: MODEL POTENTIAL
------------------------------
Loading Hartree-Fock densities                     ... done
Calculating cut-offs                               ... done
Initializing the effective Hamiltonian             ... done
Setting up the integral package (SHARK)            ... done
Starting the Coulomb interaction                   ... done (   0.0 sec)
Making the grid                                    ... done (   0.1 sec)
Mapping shells                                     ... done
Starting the XC term evaluation                    ... done (   0.0 sec)
  promolecular density results
     # of electrons  =    137.001736873
     EX              =   -160.276365680
     EC              =     -5.310192482
     EX+EC           =   -165.586558162
Transforming the Hamiltonian                       ... done (   0.0 sec)
Diagonalizing the Hamiltonian                      ... done (   0.0 sec)
Back transforming the eigenvectors                 ... done (   0.0 sec)
Now organizing SCF variables                       ... done
                      ------------------
                      INITIAL GUESS DONE (   0.2 sec)
                      ------------------
             **** ENERGY FILE WAS UPDATED (TFS.en.tmp) ****
Finished Guess after   0.9 sec
Maximum memory used throughout the entire GUESS-calculation: 25.4 MB
[ga00:463324] 29 more processes have sent help message help-mpi-btl-openib.txt / error in device init
[ga00:463324] Set MCA parameter "orte_base_help_aggregate" to 0 to see all help / error messages
--------------------------------------------------------------------------
WARNING: There was an error initializing an OpenFabrics device.

  Local host:   ga00
  Local device: mlx5_0
--------------------------------------------------------------------------


           ************************************************************
           *        Program running with 30 parallel MPI-processes    *
           *              working on a common directory               *
           ************************************************************

-------------------------------------------------------------------------------------------
                                      ORCA LEAN-SCF
                              memory conserving SCF solver
-------------------------------------------------------------------------------------------

----------------------------------------D-I-I-S--------------------------------------------
Iteration    Energy (Eh)           Delta-E    RMSDP     MaxDP     DIISErr   Damp  Time(sec)
-------------------------------------------------------------------------------------------
               ***  Starting incremental Fock matrix formation  ***
    1    -1826.5670582478774122     0.00e+00  1.64e-03  1.22e-01  3.24e-01  0.700   0.9
    2    -1826.9549932444865590    -3.88e-01  8.93e-04  4.48e-02  1.28e-01  0.700   0.7
                               ***Turning on AO-DIIS***
    3    -1827.0592367698604903    -1.04e-01  3.18e-04  1.48e-02  4.08e-02  0.700   0.6
    4    -1827.1372773466282524    -7.80e-02  4.74e-04  3.44e-02  1.44e-02  0.000   0.6
    5    -1827.3264529234406837    -1.89e-01  1.91e-04  1.05e-02  1.13e-02  0.000   0.6
                              *** Initializing SOSCF ***
---------------------------------------S-O-S-C-F--------------------------------------
Iteration    Energy (Eh)           Delta-E    RMSDP     MaxDP     MaxGrad    Time(sec)
--------------------------------------------------------------------------------------
    6    -1827.3272939557173231    -8.41e-04  5.89e-05  2.01e-03  3.25e-03     0.6
               *** Restarting incremental Fock matrix formation ***
[ga00:463461] 29 more processes have sent help message help-mpi-btl-openib.txt / error in device init
[ga00:463461] Set MCA parameter "orte_base_help_aggregate" to 0 to see all help / error messages
    7    -1827.3273608156823684    -6.69e-05  4.29e-05  2.16e-03  4.83e-04     0.8
    8    -1827.3273331739642344     2.76e-05  2.29e-05  1.48e-03  9.15e-04     0.7
    9    -1827.3273817605222575    -4.86e-05  8.33e-06  7.13e-04  8.18e-05     0.7
   10    -1827.3273805165918020     1.24e-06  4.86e-06  4.05e-04  1.39e-04     0.6
   11    -1827.3273825314518035    -2.01e-06  1.42e-06  5.93e-05  1.27e-05     0.6
   12    -1827.3273825245323678     6.92e-09  7.27e-07  3.80e-05  1.72e-05     0.5
                 **** Energy Check signals convergence ****

               *****************************************************
               *                     SUCCESS                       *
               *           SCF CONVERGED AFTER  12 CYCLES          *
               *****************************************************

Recomputing exchange energy using gridx3       ... done (    1.213 sec)
Old exchange energy                            :    -32.159362171 Eh
New exchange energy                            :    -32.159362357 Eh
Exchange energy change after final integration :     -0.000000186 Eh
Total energy after final integration           :  -1827.327382711 Eh
             **** ENERGY FILE WAS UPDATED (TFS.en.tmp) ****

----------------
TOTAL SCF ENERGY
----------------

Total Energy       :      -1827.32738271079802 Eh          -49724.10601 eV

Components:
Nuclear Repulsion  :       1607.51395258027924 Eh           43742.67848 eV
Electronic Energy  :      -3434.84133510481161 Eh          -93466.78449 eV
One Electron Energy:      -5750.50959988385239 Eh         -156479.32147 eV
Two Electron Energy:       2315.66826477904078 Eh           63012.53698 eV

Virial components:
Potential Energy   :      -3649.87532751320668 Eh          -99318.15690 eV
Kinetic Energy     :       1822.54794480240889 Eh           49594.05089 eV
Virial Ratio       :          2.00262239351344

DFT components:
N(Alpha)           :       68.999991343982 electrons
N(Beta)            :       68.999991343982 electrons
N(Total)           :      137.999982687964 electrons
E(X)               :     -128.084432192363 Eh       
E(C)               :       -6.238019861979 Eh       
E(XC)              :     -134.322452054342 Eh       

---------------
SCF CONVERGENCE
---------------

  Last Energy change         ...   -6.9194e-09  Tolerance :   1.0000e-08
  Last MAX-Density change    ...    3.7952e-05  Tolerance :   1.0000e-07
  Last RMS-Density change    ...    7.2733e-07  Tolerance :   5.0000e-09
  Last DIIS Error            ...    3.2469e-03  Tolerance :   5.0000e-07
  Last Orbital Gradient      ...    1.7235e-05  Tolerance :   1.0000e-05
  Last Orbital Rotation      ...    1.2140e-05  Tolerance :   1.0000e-05


----------------
ORBITAL ENERGIES
----------------

  NO   OCC          E(Eh)            E(eV) 
   0   2.0000     -88.931173     -2419.9402 
   1   2.0000     -88.929427     -2419.8927 
   2   2.0000     -24.609776      -669.6661 
   3   2.0000     -24.609718      -669.6645 
   4   2.0000     -24.609084      -669.6472 
   5   2.0000     -24.606330      -669.5723 
   6   2.0000     -24.605922      -669.5612 
   7   2.0000     -24.605023      -669.5367 
   8   2.0000     -18.992721      -516.8182 
   9   2.0000     -18.991788      -516.7928 
  10   2.0000     -18.990690      -516.7629 
  11   2.0000     -18.989259      -516.7240 
  12   2.0000     -14.187526      -386.0622 
  13   2.0000     -10.314054      -280.6597 
  14   2.0000     -10.310658      -280.5673 
  15   2.0000      -7.975633      -217.0280 
  16   2.0000      -7.973637      -216.9737 
  17   2.0000      -5.939442      -161.6204 
  18   2.0000      -5.938435      -161.5930 
  19   2.0000      -5.937742      -161.5742 
  20   2.0000      -5.936841      -161.5497 
  21   2.0000      -5.936316      -161.5354 
  22   2.0000      -5.934767      -161.4932 
  23   2.0000      -1.211021       -32.9536 
  24   2.0000      -1.207349       -32.8536 
  25   2.0000      -1.123824       -30.5808 
  26   2.0000      -1.122963       -30.5574 
  27   2.0000      -1.120009       -30.4770 
  28   2.0000      -1.119378       -30.4598 
  29   2.0000      -1.001815       -27.2608 
  30   2.0000      -0.985455       -26.8156 
  31   2.0000      -0.883204       -24.0332 
  32   2.0000      -0.880326       -23.9549 
  33   2.0000      -0.788040       -21.4437 
  34   2.0000      -0.634382       -17.2624 
  35   2.0000      -0.614081       -16.7100 
  36   2.0000      -0.567427       -15.4405 
  37   2.0000      -0.517717       -14.0878 
  38   2.0000      -0.493364       -13.4251 
  39   2.0000      -0.490257       -13.3406 
  40   2.0000      -0.487735       -13.2719 
  41   2.0000      -0.486045       -13.2260 
  42   2.0000      -0.476383       -12.9630 
  43   2.0000      -0.402774       -10.9601 
  44   2.0000      -0.378830       -10.3085 
  45   2.0000      -0.370489       -10.0815 
  46   2.0000      -0.367965       -10.0128 
  47   2.0000      -0.365977        -9.9587 
  48   2.0000      -0.362171        -9.8552 
  49   2.0000      -0.344993        -9.3877 
  50   2.0000      -0.344240        -9.3673 
  51   2.0000      -0.334037        -9.0896 
  52   2.0000      -0.332284        -9.0419 
  53   2.0000      -0.330499        -8.9933 
  54   2.0000      -0.326113        -8.8740 
  55   2.0000      -0.325294        -8.8517 
  56   2.0000      -0.319183        -8.6854 
  57   2.0000      -0.310132        -8.4391 
  58   2.0000      -0.305867        -8.3231 
  59   2.0000      -0.269996        -7.3470 
  60   2.0000      -0.232147        -6.3171 
  61   2.0000      -0.225115        -6.1257 
  62   2.0000      -0.209883        -5.7112 
  63   2.0000      -0.202749        -5.5171 
  64   2.0000      -0.196437        -5.3453 
  65   2.0000      -0.193882        -5.2758 
  66   2.0000      -0.182386        -4.9630 
  67   2.0000      -0.161647        -4.3986 
  68   2.0000      -0.149588        -4.0705 
  69   0.0000       0.162764         4.4290 
  70   0.0000       0.173051         4.7090 
  71   0.0000       0.187330         5.0975 
  72   0.0000       0.201322         5.4783 
  73   0.0000       0.207741         5.6529 
  74   0.0000       0.210726         5.7342 
  75   0.0000       0.221367         6.0237 
  76   0.0000       0.239163         6.5080 
  77   0.0000       0.248513         6.7624 
  78   0.0000       0.262122         7.1327 
  79   0.0000       0.291685         7.9372 
*Only the first 10 virtual orbitals were printed.

                    ********************************
                    * MULLIKEN POPULATION ANALYSIS *
                    ********************************

-----------------------
MULLIKEN ATOMIC CHARGES
-----------------------
   0 S :    0.767945
   1 S :    0.767947
   2 F :   -0.180266
   3 F :   -0.184322
   4 F :   -0.166597
   5 F :   -0.183087
   6 F :   -0.174479
   7 F :   -0.174896
   8 O :   -0.454653
   9 O :   -0.474877
  10 O :   -0.472737
  11 O :   -0.452572
  12 N :   -0.430380
  13 C :    0.402120
  14 C :    0.410855
Sum of atomic charges:   -1.0000000

--------------------------------
MULLIKEN REDUCED ORBITAL CHARGES
--------------------------------
  0 S s       :     5.384215  s :     5.384215
      pz      :     2.785757  p :     8.630521
      px      :     2.893264
      py      :     2.951500
      dz2     :     0.256851  d :     1.115240
      dxz     :     0.234865
      dyz     :     0.222334
      dx2y2   :     0.222701
      dxy     :     0.178488
      f0      :     0.024652  f :     0.102079
      f+1     :     0.015502
      f-1     :     0.010288
      f+2     :     0.014281
      f-2     :     0.018659
      f+3     :     0.008326
      f-3     :     0.010371

  1 S s       :     5.383200  s :     5.383200
      pz      :     2.803584  p :     8.638314
      px      :     2.897578
      py      :     2.937152
      dz2     :     0.226448  d :     1.108759
      dxz     :     0.261241
      dyz     :     0.215475
      dx2y2   :     0.211656
      dxy     :     0.193938
      f0      :     0.011624  f :     0.101781
      f+1     :     0.026180
      f-1     :     0.019388
      f+2     :     0.011789
      f-2     :     0.013409
      f+3     :     0.009878
      f-3     :     0.009512

  2 F s       :     3.906411  s :     3.906411
      pz      :     1.686223  p :     5.256892
      px      :     1.893399
      py      :     1.677270
      dz2     :     0.003373  d :     0.016220
      dxz     :     0.001951
      dyz     :     0.006524
      dx2y2   :     0.002676
      dxy     :     0.001696
      f0      :     0.000087  f :     0.000744
      f+1     :     0.000035
      f-1     :     0.000232
      f+2     :     0.000186
      f-2     :     0.000112
      f+3     :     0.000038
      f-3     :     0.000053

  3 F s       :     3.906005  s :     3.906005
      pz      :     1.877194  p :     5.261559
      px      :     1.484787
      py      :     1.899577
      dz2     :     0.002081  d :     0.016024
      dxz     :     0.003880
      dyz     :     0.000388
      dx2y2   :     0.006166
      dxy     :     0.003510
      f0      :     0.000071  f :     0.000733
      f+1     :     0.000129
      f-1     :     0.000007
      f+2     :     0.000135
      f-2     :     0.000031
      f+3     :     0.000219
      f-3     :     0.000142

  4 F s       :     3.909252  s :     3.909252
      pz      :     1.600116  p :     5.239938
      px      :     1.785776
      py      :     1.854046
      dz2     :     0.004448  d :     0.016651
      dxz     :     0.005496
      dyz     :     0.003676
      dx2y2   :     0.001585
      dxy     :     0.001444
      f0      :     0.000116  f :     0.000757
      f+1     :     0.000229
      f-1     :     0.000119
      f+2     :     0.000119
      f-2     :     0.000129
      f+3     :     0.000021
      f-3     :     0.000024

  5 F s       :     3.906350  s :     3.906350
      pz      :     1.801770  p :     5.259966
      px      :     1.566893
      py      :     1.891303
      dz2     :     0.002171  d :     0.016036
      dxz     :     0.005602
      dyz     :     0.000903
      dx2y2   :     0.004294
      dxy     :     0.003067
      f0      :     0.000085  f :     0.000735
      f+1     :     0.000135
      f-1     :     0.000006
      f+2     :     0.000201
      f-2     :     0.000078
      f+3     :     0.000125
      f-3     :     0.000105

  6 F s       :     3.905344  s :     3.905344
      pz      :     1.475427  p :     5.252029
      px      :     1.881313
      py      :     1.895288
      dz2     :     0.008388  d :     0.016354
      dxz     :     0.003805
      dyz     :     0.003622
      dx2y2   :     0.000216
      dxy     :     0.000323
      f0      :     0.000356  f :     0.000752
      f+1     :     0.000196
      f-1     :     0.000155
      f+2     :     0.000017
      f-2     :     0.000026
      f+3     :     0.000001
      f-3     :     0.000001

  7 F s       :     3.910210  s :     3.910210
      pz      :     1.871851  p :     5.247593
      px      :     1.743084
      py      :     1.632658
      dz2     :     0.002241  d :     0.016346
      dxz     :     0.001869
      dyz     :     0.002525
      dx2y2   :     0.003792
      dxy     :     0.005918
      f0      :     0.000073  f :     0.000747
      f+1     :     0.000058
      f-1     :     0.000086
      f+2     :     0.000030
      f-2     :     0.000139
      f+3     :     0.000198
      f-3     :     0.000162

  8 O s       :     3.821085  s :     3.821085
      pz      :     1.420160  p :     4.596925
      px      :     1.655611
      py      :     1.521154
      dz2     :     0.009831  d :     0.034592
      dxz     :     0.006712
      dyz     :     0.009616
      dx2y2   :     0.004299
      dxy     :     0.004134
      f0      :     0.000405  f :     0.002052
      f+1     :     0.000208
      f-1     :     0.000517
      f+2     :     0.000366
      f-2     :     0.000366
      f+3     :     0.000094
      f-3     :     0.000097

  9 O s       :     3.818163  s :     3.818163
      pz      :     1.431109  p :     4.620150
      px      :     1.546891
      py      :     1.642150
      dz2     :     0.009969  d :     0.034503
      dxz     :     0.009931
      dyz     :     0.007394
      dx2y2   :     0.003551
      dxy     :     0.003657
      f0      :     0.000443  f :     0.002062
      f+1     :     0.000520
      f-1     :     0.000245
      f+2     :     0.000361
      f-2     :     0.000355
      f+3     :     0.000068
      f-3     :     0.000071

 10 O s       :     3.820945  s :     3.820945
      pz      :     1.623073  p :     4.615207
      px      :     1.495314
      py      :     1.496820
      dz2     :     0.004747  d :     0.034529
      dxz     :     0.005737
      dyz     :     0.005918
      dx2y2   :     0.009333
      dxy     :     0.008795
      f0      :     0.000176  f :     0.002055
      f+1     :     0.000235
      f-1     :     0.000234
      f+2     :     0.000183
      f-2     :     0.000389
      f+3     :     0.000414
      f-3     :     0.000425

 11 O s       :     3.826406  s :     3.826406
      pz      :     1.295794  p :     4.589423
      px      :     1.657747
      py      :     1.635881
      dz2     :     0.012850  d :     0.034694
      dxz     :     0.010314
      dyz     :     0.010423
      dx2y2   :     0.000584
      dxy     :     0.000524
      f0      :     0.000721  f :     0.002049
      f+1     :     0.000609
      f-1     :     0.000596
      f+2     :     0.000061
      f-2     :     0.000059
      f+3     :     0.000002
      f-3     :     0.000002

 12 N s       :     3.532098  s :     3.532098
      pz      :     1.393990  p :     3.842323
      px      :     0.923643
      py      :     1.524690
      dz2     :     0.011159  d :     0.051687
      dxz     :     0.016720
      dyz     :     0.007840
      dx2y2   :     0.007960
      dxy     :     0.008008
      f0      :     0.000328  f :     0.004272
      f+1     :     0.000630
      f-1     :     0.000046
      f+2     :     0.000911
      f-2     :     0.000309
      f+3     :     0.000941
      f-3     :     0.001108

 13 C s       :     3.093233  s :     3.093233
      pz      :     0.653730  p :     2.134729
      px      :     0.638034
      py      :     0.842964
      dz2     :     0.071860  d :     0.331656
      dxz     :     0.071043
      dyz     :     0.059884
      dx2y2   :     0.061892
      dxy     :     0.066977
      f0      :     0.007017  f :     0.038262
      f+1     :     0.004995
      f-1     :     0.004875
      f+2     :     0.007036
      f-2     :     0.005661
      f+3     :     0.003335
      f-3     :     0.005343

 14 C s       :     3.082723  s :     3.082723
      pz      :     0.638010  p :     2.140533
      px      :     0.666625
      py      :     0.835898
      dz2     :     0.064849  d :     0.327735
      dxz     :     0.071442
      dyz     :     0.067352
      dx2y2   :     0.063569
      dxy     :     0.060523
      f0      :     0.004878  f :     0.038154
      f+1     :     0.009013
      f-1     :     0.006247
      f+2     :     0.003054
      f-2     :     0.005046
      f+3     :     0.003979
      f-3     :     0.005937



                     *******************************
                     * LOEWDIN POPULATION ANALYSIS *
                     *******************************

----------------------
LOEWDIN ATOMIC CHARGES
----------------------
   0 S :    0.545048
   1 S :    0.550802
   2 F :    0.177211
   3 F :    0.169689
   4 F :    0.192328
   5 F :    0.171081
   6 F :    0.182682
   7 F :    0.184112
   8 O :   -0.288941
   9 O :   -0.292030
  10 O :   -0.292472
  11 O :   -0.287442
  12 N :   -0.419821
  13 C :   -0.798980
  14 C :   -0.793267

-------------------------------
LOEWDIN REDUCED ORBITAL CHARGES
-------------------------------
  0 S s       :     4.744778  s :     4.744778
      pz      :     2.867889  p :     8.617691
      px      :     2.864447
      py      :     2.885356
      dz2     :     0.400491  d :     1.783835
      dxz     :     0.390975
      dyz     :     0.367343
      dx2y2   :     0.359272
      dxy     :     0.265753
      f0      :     0.068920  f :     0.308648
      f+1     :     0.050674
      f-1     :     0.036131
      f+2     :     0.045911
      f-2     :     0.053277
      f+3     :     0.024406
      f-3     :     0.029328

  1 S s       :     4.745671  s :     4.745671
      pz      :     2.868312  p :     8.622991
      px      :     2.871825
      py      :     2.882853
      dz2     :     0.398046  d :     1.771938
      dxz     :     0.420333
      dyz     :     0.320606
      dx2y2   :     0.315223
      dxy     :     0.317729
      f0      :     0.042228  f :     0.308598
      f+1     :     0.076139
      f-1     :     0.054026
      f+2     :     0.034014
      f-2     :     0.041501
      f+3     :     0.030214
      f-3     :     0.030475

  2 F s       :     3.609551  s :     3.609551
      pz      :     1.686411  p :     5.180662
      px      :     1.817679
      py      :     1.676572
      dz2     :     0.006083  d :     0.030956
      dxz     :     0.003251
      dyz     :     0.013211
      dx2y2   :     0.005709
      dxy     :     0.002702
      f0      :     0.000218  f :     0.001619
      f+1     :     0.000073
      f-1     :     0.000470
      f+2     :     0.000410
      f-2     :     0.000238
      f+3     :     0.000073
      f-3     :     0.000137

  3 F s       :     3.612070  s :     3.612070
      pz      :     1.809264  p :     5.186088
      px      :     1.554121
      py      :     1.822703
      dz2     :     0.003783  d :     0.030561
      dxz     :     0.006997
      dyz     :     0.000647
      dx2y2   :     0.012221
      dxy     :     0.006913
      f0      :     0.000157  f :     0.001593
      f+1     :     0.000255
      f-1     :     0.000015
      f+2     :     0.000288
      f-2     :     0.000077
      f+3     :     0.000441
      f-3     :     0.000359

  4 F s       :     3.606103  s :     3.606103
      pz      :     1.629635  p :     5.168206
      px      :     1.749018
      py      :     1.789553
      dz2     :     0.008020  d :     0.031700
      dxz     :     0.010298
      dyz     :     0.007850
      dx2y2   :     0.002860
      dxy     :     0.002672
      f0      :     0.000249  f :     0.001662
      f+1     :     0.000464
      f-1     :     0.000285
      f+2     :     0.000277
      f-2     :     0.000289
      f+3     :     0.000050
      f-3     :     0.000048

  5 F s       :     3.611539  s :     3.611539
      pz      :     1.761060  p :     5.185154
      px      :     1.607184
      py      :     1.816910
      dz2     :     0.003898  d :     0.030628
      dxz     :     0.010461
      dyz     :     0.001677
      dx2y2   :     0.008272
      dxy     :     0.006320
      f0      :     0.000170  f :     0.001598
      f+1     :     0.000309
      f-1     :     0.000009
      f+2     :     0.000401
      f-2     :     0.000190
      f+3     :     0.000245
      f-3     :     0.000274

  6 F s       :     3.607985  s :     3.607985
      pz      :     1.549801  p :     5.176559
      px      :     1.809243
      py      :     1.817516
      dz2     :     0.016318  d :     0.031138
      dxz     :     0.006820
      dyz     :     0.007194
      dx2y2   :     0.000271
      dxy     :     0.000535
      f0      :     0.000710  f :     0.001635
      f+1     :     0.000436
      f-1     :     0.000394
      f+2     :     0.000026
      f-2     :     0.000065
      f+3     :     0.000002
      f-3     :     0.000002

  7 F s       :     3.608144  s :     3.608144
      pz      :     1.804388  p :     5.174868
      px      :     1.723267
      py      :     1.647213
      dz2     :     0.004329  d :     0.031240
      dxz     :     0.003191
      dyz     :     0.004279
      dx2y2   :     0.007795
      dxy     :     0.011646
      f0      :     0.000141  f :     0.001636
      f+1     :     0.000126
      f-1     :     0.000203
      f+2     :     0.000062
      f-2     :     0.000289
      f+3     :     0.000436
      f-3     :     0.000378

  8 O s       :     3.559136  s :     3.559136
      pz      :     1.521664  p :     4.657766
      px      :     1.600289
      py      :     1.535813
      dz2     :     0.016782  d :     0.067406
      dxz     :     0.009626
      dyz     :     0.027544
      dx2y2   :     0.007780
      dxy     :     0.005675
      f0      :     0.000641  f :     0.004633
      f+1     :     0.000381
      f-1     :     0.001596
      f+2     :     0.000952
      f-2     :     0.000678
      f+3     :     0.000166
      f-3     :     0.000217

  9 O s       :     3.556074  s :     3.556074
      pz      :     1.528494  p :     4.665415
      px      :     1.559909
      py      :     1.577013
      dz2     :     0.018450  d :     0.065941
      dxz     :     0.026122
      dyz     :     0.010556
      dx2y2   :     0.005997
      dxy     :     0.004815
      f0      :     0.000692  f :     0.004600
      f+1     :     0.001686
      f-1     :     0.000490
      f+2     :     0.000845
      f-2     :     0.000615
      f+3     :     0.000147
      f-3     :     0.000125

 10 O s       :     3.558021  s :     3.558021
      pz      :     1.593033  p :     4.663561
      px      :     1.542493
      py      :     1.528036
      dz2     :     0.008417  d :     0.066292
      dxz     :     0.011005
      dyz     :     0.010896
      dx2y2   :     0.012439
      dxy     :     0.023536
      f0      :     0.000518  f :     0.004598
      f+1     :     0.000406
      f-1     :     0.000425
      f+2     :     0.000277
      f-2     :     0.001087
      f+3     :     0.000935
      f-3     :     0.000951

 11 O s       :     3.559459  s :     3.559459
      pz      :     1.479293  p :     4.655262
      px      :     1.601566
      py      :     1.574403
      dz2     :     0.037877  d :     0.068070
      dxz     :     0.014883
      dyz     :     0.013631
      dx2y2   :     0.000836
      dxy     :     0.000842
      f0      :     0.002279  f :     0.004652
      f+1     :     0.001143
      f-1     :     0.000970
      f+2     :     0.000116
      f-2     :     0.000133
      f+3     :     0.000004
      f-3     :     0.000005

 12 N s       :     3.224495  s :     3.224495
      pz      :     1.424622  p :     4.016233
      px      :     1.171453
      py      :     1.420158
      dz2     :     0.022247  d :     0.166146
      dxz     :     0.065318
      dyz     :     0.009612
      dx2y2   :     0.043575
      dxy     :     0.025393
      f0      :     0.001315  f :     0.012947
      f+1     :     0.002443
      f-1     :     0.000133
      f+2     :     0.002945
      f-2     :     0.001138
      f+3     :     0.003038
      f-3     :     0.001936

 13 C s       :     2.855134  s :     2.855134
      pz      :     0.810312  p :     2.594092
      px      :     0.804874
      py      :     0.978905
      dz2     :     0.223149  d :     1.105913
      dxz     :     0.236247
      dyz     :     0.228554
      dx2y2   :     0.239330
      dxy     :     0.178632
      f0      :     0.040113  f :     0.243841
      f+1     :     0.037925
      f-1     :     0.032812
      f+2     :     0.042882
      f-2     :     0.034854
      f+3     :     0.025296
      f-3     :     0.029959

 14 C s       :     2.851696  s :     2.851696
      pz      :     0.798343  p :     2.594004
      px      :     0.824912
      py      :     0.970749
      dz2     :     0.261806  d :     1.103898
      dxz     :     0.236288
      dyz     :     0.178462
      dx2y2   :     0.203069
      dxy     :     0.224273
      f0      :     0.038530  f :     0.243669
      f+1     :     0.049915
      f-1     :     0.035950
      f+2     :     0.027192
      f-2     :     0.031946
      f+3     :     0.028213
      f-3     :     0.031923



                      *****************************
                      * MAYER POPULATION ANALYSIS *
                      *****************************

  NA   - Mulliken gross atomic population
  ZA   - Total nuclear charge
  QA   - Mulliken gross atomic charge
  VA   - Mayer's total valence
  BVA  - Mayer's bonded valence
  FA   - Mayer's free valence

  ATOM       NA         ZA         QA         VA         BVA        FA
  0 S     15.2321    16.0000     0.7679     6.0091     6.0091    -0.0000
  1 S     15.2321    16.0000     0.7679     5.9782     5.9782     0.0000
  2 F      9.1803     9.0000    -0.1803     1.1085     1.1085     0.0000
  3 F      9.1843     9.0000    -0.1843     1.1075     1.1075     0.0000
  4 F      9.1666     9.0000    -0.1666     1.1300     1.1300     0.0000
  5 F      9.1831     9.0000    -0.1831     1.1072     1.1072     0.0000
  6 F      9.1745     9.0000    -0.1745     1.1201     1.1201     0.0000
  7 F      9.1749     9.0000    -0.1749     1.1204     1.1204     0.0000
  8 O      8.4547     8.0000    -0.4547     2.0224     2.0224    -0.0000
  9 O      8.4749     8.0000    -0.4749     2.0194     2.0194    -0.0000
 10 O      8.4727     8.0000    -0.4727     2.0138     2.0138     0.0000
 11 O      8.4526     8.0000    -0.4526     2.0149     2.0149    -0.0000
 12 N      7.4304     7.0000    -0.4304     2.6781     2.6781    -0.0000
 13 C      5.5979     6.0000     0.4021     4.3591     4.3591    -0.0000
 14 C      5.5891     6.0000     0.4109     4.3803     4.3803     0.0000

  Mayer bond orders larger than 0.100000
B(  0-S ,  8-O ) :   1.8811 B(  0-S ,  9-O ) :   1.8831 B(  0-S , 12-N ) :   1.2714 
B(  0-S , 13-C ) :   0.8300 B(  1-S , 10-O ) :   1.8753 B(  1-S , 11-O ) :   1.8622 
B(  1-S , 12-N ) :   1.2530 B(  1-S , 14-C ) :   0.8370 B(  2-F , 13-C ) :   1.0985 
B(  3-F , 13-C ) :   1.1036 B(  4-F , 13-C ) :   1.1174 B(  5-F , 14-C ) :   1.1058 
B(  6-F , 14-C ) :   1.1189 B(  7-F , 14-C ) :   1.1106 

-------------------------
CHELPG CHARGES GENERATION
-------------------------
Grid spacing                       ...     0.300000
Point Cut-Off                      ...     2.800000
Van-der-Waals Radii                ...        COSMO
Total charge                       ...           -1
Dipole moment constraint           ...        FALSE


Number of points X direction       ...           40
Number of points Y direction       ...           30
Number of points Z direction       ...           29
Maximum number of possible points  ...        34800
Final number of points             ...        10579


Grid generated                     ...   0.0 sec
Potential calculated               ...   0.2 sec
RespFile stored                    ... ok
Charges calculated                 ...   0.0 sec
CHELPG Charges            
--------------------------------
  0   S   :       1.057726
  1   S   :       1.090733
  2   F   :      -0.146181
  3   F   :      -0.163128
  4   F   :      -0.128898
  5   F   :      -0.140618
  6   F   :      -0.130688
  7   F   :      -0.117488
  8   O   :      -0.523102
  9   O   :      -0.548787
 10   O   :      -0.539569
 11   O   :      -0.545744
 12   N   :      -0.643362
 13   C   :       0.271980
 14   C   :       0.207125
--------------------------------
Total charge:    -1.000000
--------------------------------

CHELPG charges calculated...

Timings:
Grid generation                 ...        0.001 sec (=   0.000 min)
Potential calculation           ...        0.151 sec (=   0.003 min)
Fit to the potential            ...        0.006 sec (=   0.000 min)
------------------------------------------------------------------------------

-------
TIMINGS
-------

Total SCF time: 0 days 0 hours 0 min 10 sec 

Total time                  ....      10.079 sec
Sum of individual times     ....      10.072 sec  ( 99.9%)

SCF preparation             ....       0.732 sec  (  7.3%)
Fock matrix formation       ....       7.982 sec  ( 79.2%)
  Startup                   ....       0.036 sec  (  0.5% of F)
  Split-RI-J                ....       0.817 sec  ( 10.2% of F)
  Chain of spheres X        ....       6.056 sec  ( 75.9% of F)
  XC integration            ....       0.941 sec  ( 11.8% of F)
    XC Preparation          ....       0.000 sec  (  0.0% of XC)
    Basis function eval.    ....       0.238 sec  ( 25.3% of XC)
    Density eval.           ....       0.231 sec  ( 24.6% of XC)
    XC-Functional eval.     ....       0.023 sec  (  2.4% of XC)
    XC-Potential eval.      ....       0.303 sec  ( 32.2% of XC)
Diagonalization             ....       0.000 sec  (  0.0%)
Density matrix formation    ....       0.125 sec  (  1.2%)
Total Energy calculation    ....       0.064 sec  (  0.6%)
Population analysis         ....       0.223 sec  (  2.2%)
Orbital Transformation      ....       0.109 sec  (  1.1%)
Orbital Orthonormalization  ....       0.000 sec  (  0.0%)
DIIS solution               ....       0.520 sec  (  5.2%)
SOSCF solution              ....       0.316 sec  (  3.1%)
Finished LeanSCF after  10.1 sec

Maximum memory used throughout the entire LEANSCF-calculation: 46.2 MB


-------------------------------------------------------------------------------
                          DFT DISPERSION CORRECTION                            
                                                                               
                                DFTD4 V3.4.0                                   
-------------------------------------------------------------------------------
The B3LYP functional is recognized
Active option DFTDOPT                   ...         5   

-------------------------   ----------------
Dispersion correction           -0.038962791
-------------------------   ----------------


-------------------------   --------------------
FINAL SINGLE POINT ENERGY     -1827.366345501466
-------------------------   --------------------

--------------------------------------------------------------------------
WARNING: There was an error initializing an OpenFabrics device.

  Local host:   ga00
  Local device: mlx5_0
--------------------------------------------------------------------------


           ************************************************************
           *        Program running with 30 parallel MPI-processes    *
           *              working on a common directory               *
           ************************************************************

------------------------------------------------------------------------------
                              ORCA PROPERTY CALCULATIONS
------------------------------------------------------------------------------

GBWName                                 ... TFS.gbw
Number of atoms                         ...     15
Number of basis functions               ...    477
Max core memory                         ...   5000 MB

Electric properties:
Dipole moment                           ... YES
Quadrupole moment                       ...  NO
Static polarizability (Dipole/Dipole)   ...  NO
Static polarizability (Dipole/Quad.)    ...  NO
Static polarizability (Quad./Quad.)     ...  NO
Static polarizability (Velocity)        ...  NO

Atomic electric properties:
Dipole moment                           ...  NO
Quadrupole moment                       ...  NO
Static polarizability                   ...  NO

Choice of electric origin               ... Center of mass
Position of electric origin             ...    -0.006108    -0.091926     0.000823

General magnetic properties:
Magnetizability                         ...  NO

EPR properties:
g-Tensor (aka g-matrix)                 ...  NO
Zero-Field splitting spin-orbit         ...  NO
Zero-field splitting spin-spin          ...  NO
Hyperfine couplings                     ...  NO (   0 nuclei)
Quadrupole couplings                    ...  NO (   0 nuclei)
Contact density                         ...  NO (   0 nuclei)

NMR properties:
Chemical shifts                         ...  NO (   0 nuclei)
Spin-rotation constants                 ...  NO (   0 nuclei)
Spin-spin couplings                     ...  NO (   0 nuclei,    0 pairs)

Choice of magnetic origin               ... GIAO
Position of magnetic origin             ...     0.000000     0.000000     0.000000

Properties with geometric perturbations:
SCF Hessian                             ...  NO
IR spectrum                             ...  NO
VCD spectrum                            ...  NO
X-ray spectroscopy properties:
SCF XES/XAS/RIXS spectra                ...  NO


-------------
DIPOLE MOMENT
-------------

Method             : SCF
Type of density    : Electron Density
Multiplicity       :   1
Irrep              :   0
Energy             : -1827.3273827107980196 Eh
Relativity type    : 
Basis              : AO
                                X                 Y                 Z
Electronic contribution:      0.590416594       8.463512474       0.162850274
Nuclear contribution   :     -0.425834509      -6.706909520      -0.145094337
                        -----------------------------------------
Total Dipole Moment    :      0.164582085       1.756602954       0.017755937
                        -----------------------------------------
Magnitude (a.u.)       :      1.764385580
Magnitude (Debye)      :      4.484711737



--------------------
Rotational spectrum 
--------------------
 
Rotational constants in cm-1:             0.028514             0.012928             0.011320 
Rotational constants in MHz :           854.829799           387.564403           339.363011 

Dipole components along the rotational axes: 
x,y,z [a.u.] :     0.273188     1.742947     0.023691 
x,y,z [Debye]:     0.694389     4.430219     0.060219 

 

Dipole moment calculation done in   0.0 sec 

Maximum memory used throughout the entire PROP-calculation: 25.0 MB
[ga00:463779] 29 more processes have sent help message help-mpi-btl-openib.txt / error in device init
[ga00:463779] Set MCA parameter "orte_base_help_aggregate" to 0 to see all help / error messages
--------------------------------------------------------------------------
WARNING: There was an error initializing an OpenFabrics device.

  Local host:   ga00
  Local device: mlx5_0
--------------------------------------------------------------------------
[ga00:463915] 29 more processes have sent help message help-mpi-btl-openib.txt / error in device init
[ga00:463915] Set MCA parameter "orte_base_help_aggregate" to 0 to see all help / error messages

--------------------------------
SUGGESTED CITATIONS FOR THIS RUN
--------------------------------

Below you find a list of papers that are relevant to this ORCA run
We neither can nor want to force you to cite these papers, but we appreciate if you do
You receive ORCA, which is the product of decades of hard work by many enthusiastic individuals, for free
The only thing we kindly ask in return is that you cite our papers,
We deeply appreciate it, if you show your appreciation for ORCA by not just citing the generic ORCA reference.

Please note that relegating all ORCA citations to the supporting information does *not* help us.
SI sections are not indexed - citations you put there will not count into any citation statistics
But we need these citations in order to attract the funding resources that allow us to do what we are doing

Therefore, if you are a happy ORCA user, please consider citing a few of the papers listed below in the main body of your paper

In addition to the list printed below, the program has created the file TFS.bibtex that contains the list in bibtex format
You can import this file easily into all common literature databanks and citation aid programs


List of essential papers. We consider these as the minimum necessary citations

  1. Neese,F.
     Software update: the ORCA program system, version 5.0
     WIRES Comput. Molec. Sci., 2022 12(1)e1606
     doi.org/10.1002/wcms.1606

List of papers to cite with high priority. The work reported in these papers was absolutely
necessary for this run to complete.
Our perspective: the developers of density functionals and basis sets usually get cited in chemistry papers
Good! But without the algorithms to do something with them, the functionals or basis sets would not do anything.
Hence, in our opinion, the algorithm design and method developments papers are equally worthy of getting cited

  1. Neese,F.
     An improvement of the resolution of the identity approximation for the formation of the Coulomb matrix
     J. Comp. Chem., 2003 24(14)1740-1747
     doi.org/10.1002/jcc.10318
  2. Neese,F.; Wennmohs,F.; Hansen,A.; Becker,U.
     Efficient, approximate and parallel Hartree-Fock and hybrid DFT calculations. A 'chain-of-spheres' algorithm for the Hartree-Fock exchange
     Chem. Phys., 2009 356(1-3)98-109
     doi.org/10.1016/j.chemphys.2008.10.036
  3. Helmich-Paris,B.; de Souza,B.; Neese,F.; Izsák,R.
     An improved chain of spheres for exchange algorithm
     J. Chem. Phys., 2021 155 104109
     doi.org/doi: 10.1063/5.0058766.
  4. Neese,F.
     The SHARK Integral Generation and Digestion System
     J. Comp. Chem., 2022  1-16
     doi.org/10.1002/jcc.26942
  5. Caldeweyher,E.; Bannwarth,C.; Grimme,S.
     Extension of the D3 dispersion coefficient model
     J. Chem. Phys., 2017 147 034112
     doi.org/10.1063/1.4993215
  6. Caldeweyher,E.; Ehlert,S.; Hansen,A.; Neugebauer,H.; Spicher,S.; Bannwarth,C.; Grimme,S.
     A generally applicable atomic-charge dependent London dispersion correction
     J. Chem. Phys., 2019 150 154122
     doi.org/10.1063/1.5090222
  7. Caldeweyher,E.; Mewes,J.; Ehlert,S.; Grimme,S.
     Extension and evaluation of the D4 London-dispersion model for periodic systems
     Phys. Chem. Chem. Phys., 2020 22(16)8499-8512
     doi.org/10.1039/D0CP00502A
  8. Wittmann,L.; Gordiy,I.; Friede,M.; Helmich-Paris,B.; Grimme,S.; Hansen,A.; Bursch,M.
     Extension of the D3 and D4 London Dispersion Corrections to the full Actinides Series
     Phys. Chem. Chem. Phys., 2024 26(32)21379-21394
     doi.org/https://doi.org/10.1039/D4CP01514B 

List of suggested additional citations. These are papers that are important in the 'surrounding' of 
of this run, or papers that preceded the highly important papers. If you like your results we are grateful for a citation.

  1. Izsak,R.; Neese,F.
     An overlap fitted chain of spheres exchange method
     J. Chem. Phys., 2011 135 144105
     doi.org/10.1063/1.3646921
  2. Izsak,R.; Hansen,A.; Neese,F.
     The resolution of identity and chain of spheres approximations for the LPNO-CCSD singles Fock term
     Molec. Phys., 2012 110 2413-2417
     doi.org/10.1080/00268976.2012.687466
  3. Neese,F.
     The ORCA program system
     WIRES Comput. Molec. Sci., 2012 2(1)73-78
     doi.org/10.1002/wcms.81
  4. Izsak,R.; Neese,F.; Klopper,W.
     Robust fitting techniques in the chain of spheres approximation to the Fock exchange: The role of the complementary space
     J. Chem. Phys., 2013 139 
     doi.org/10.1063/1.4819264
  5. Neese,F.
     Software update: the ORCA program system, version 4.0
     WIRES Comput. Molec. Sci., 2018 8(1)1-6
     doi.org/10.1002/wcms.1327
  6. Neese,F.; Wennmohs,F.; Becker,U.; Riplinger,C.
     The ORCA quantum chemistry program package
     J. Chem. Phys., 2020 152 Art. No. L224108
     doi.org/10.1063/5.0004608

List of optional additional citations

  1. Neese,F.
     Approximate second-order SCF convergence for spin unrestricted wavefunctions
     Chem. Phys. Lett., 2000 325(1-3)93-98
     doi.org/10.1016/s0009-2614(00)00662-x

Timings for individual modules:

Sum of individual times          ...       14.986 sec (=   0.250 min)
Startup calculation              ...        2.052 sec (=   0.034 min)  13.7 %
SCF iterations                   ...       11.853 sec (=   0.198 min)  79.1 %
Property calculations            ...        1.081 sec (=   0.018 min)   7.2 %
                             ****ORCA TERMINATED NORMALLY****
TOTAL RUN TIME: 0 days 0 hours 0 minutes 16 seconds 26 msec
